# vtk DataFile Version 3.0
Groundwater FEM Result - Task 1
ASCII
DATASET UNSTRUCTURED_GRID

POINTS 231 float
0.0 0.0 0.0
5.0 0.0 0.0
10.0 0.0 0.0
15.0 0.0 0.0
20.0 0.0 0.0
25.0 0.0 0.0
30.0 0.0 0.0
35.0 0.0 0.0
40.0 0.0 0.0
45.0 0.0 0.0
50.0 0.0 0.0
55.0 0.0 0.0
60.0 0.0 0.0
65.0 0.0 0.0
70.0 0.0 0.0
75.0 0.0 0.0
80.0 0.0 0.0
85.0 0.0 0.0
90.0 0.0 0.0
95.0 0.0 0.0
100.0 0.0 0.0
0.0 5.0 0.0
5.0 5.0 0.0
10.0 5.0 0.0
15.0 5.0 0.0
20.0 5.0 0.0
25.0 5.0 0.0
30.0 5.0 0.0
35.0 5.0 0.0
40.0 5.0 0.0
45.0 5.0 0.0
50.0 5.0 0.0
55.0 5.0 0.0
60.0 5.0 0.0
65.0 5.0 0.0
70.0 5.0 0.0
75.0 5.0 0.0
80.0 5.0 0.0
85.0 5.0 0.0
90.0 5.0 0.0
95.0 5.0 0.0
100.0 5.0 0.0
0.0 10.0 0.0
5.0 10.0 0.0
10.0 10.0 0.0
15.0 10.0 0.0
20.0 10.0 0.0
25.0 10.0 0.0
30.0 10.0 0.0
35.0 10.0 0.0
40.0 10.0 0.0
45.0 10.0 0.0
50.0 10.0 0.0
55.0 10.0 0.0
60.0 10.0 0.0
65.0 10.0 0.0
70.0 10.0 0.0
75.0 10.0 0.0
80.0 10.0 0.0
85.0 10.0 0.0
90.0 10.0 0.0
95.0 10.0 0.0
100.0 10.0 0.0
0.0 15.0 0.0
5.0 15.0 0.0
10.0 15.0 0.0
15.0 15.0 0.0
20.0 15.0 0.0
25.0 15.0 0.0
30.0 15.0 0.0
35.0 15.0 0.0
40.0 15.0 0.0
45.0 15.0 0.0
50.0 15.0 0.0
55.0 15.0 0.0
60.0 15.0 0.0
65.0 15.0 0.0
70.0 15.0 0.0
75.0 15.0 0.0
80.0 15.0 0.0
85.0 15.0 0.0
90.0 15.0 0.0
95.0 15.0 0.0
100.0 15.0 0.0
0.0 20.0 0.0
5.0 20.0 0.0
10.0 20.0 0.0
15.0 20.0 0.0
20.0 20.0 0.0
25.0 20.0 0.0
30.0 20.0 0.0
35.0 20.0 0.0
40.0 20.0 0.0
45.0 20.0 0.0
50.0 20.0 0.0
55.0 20.0 0.0
60.0 20.0 0.0
65.0 20.0 0.0
70.0 20.0 0.0
75.0 20.0 0.0
80.0 20.0 0.0
85.0 20.0 0.0
90.0 20.0 0.0
95.0 20.0 0.0
100.0 20.0 0.0
0.0 25.0 0.0
5.0 25.0 0.0
10.0 25.0 0.0
15.0 25.0 0.0
20.0 25.0 0.0
25.0 25.0 0.0
30.0 25.0 0.0
35.0 25.0 0.0
40.0 25.0 0.0
45.0 25.0 0.0
50.0 25.0 0.0
55.0 25.0 0.0
60.0 25.0 0.0
65.0 25.0 0.0
70.0 25.0 0.0
75.0 25.0 0.0
80.0 25.0 0.0
85.0 25.0 0.0
90.0 25.0 0.0
95.0 25.0 0.0
100.0 25.0 0.0
0.0 30.0 0.0
5.0 30.0 0.0
10.0 30.0 0.0
15.0 30.0 0.0
20.0 30.0 0.0
25.0 30.0 0.0
30.0 30.0 0.0
35.0 30.0 0.0
40.0 30.0 0.0
45.0 30.0 0.0
50.0 30.0 0.0
55.0 30.0 0.0
60.0 30.0 0.0
65.0 30.0 0.0
70.0 30.0 0.0
75.0 30.0 0.0
80.0 30.0 0.0
85.0 30.0 0.0
90.0 30.0 0.0
95.0 30.0 0.0
100.0 30.0 0.0
0.0 35.0 0.0
5.0 35.0 0.0
10.0 35.0 0.0
15.0 35.0 0.0
20.0 35.0 0.0
25.0 35.0 0.0
30.0 35.0 0.0
35.0 35.0 0.0
40.0 35.0 0.0
45.0 35.0 0.0
50.0 35.0 0.0
55.0 35.0 0.0
60.0 35.0 0.0
65.0 35.0 0.0
70.0 35.0 0.0
75.0 35.0 0.0
80.0 35.0 0.0
85.0 35.0 0.0
90.0 35.0 0.0
95.0 35.0 0.0
100.0 35.0 0.0
0.0 40.0 0.0
5.0 40.0 0.0
10.0 40.0 0.0
15.0 40.0 0.0
20.0 40.0 0.0
25.0 40.0 0.0
30.0 40.0 0.0
35.0 40.0 0.0
40.0 40.0 0.0
45.0 40.0 0.0
50.0 40.0 0.0
55.0 40.0 0.0
60.0 40.0 0.0
65.0 40.0 0.0
70.0 40.0 0.0
75.0 40.0 0.0
80.0 40.0 0.0
85.0 40.0 0.0
90.0 40.0 0.0
95.0 40.0 0.0
100.0 40.0 0.0
0.0 45.0 0.0
5.0 45.0 0.0
10.0 45.0 0.0
15.0 45.0 0.0
20.0 45.0 0.0
25.0 45.0 0.0
30.0 45.0 0.0
35.0 45.0 0.0
40.0 45.0 0.0
45.0 45.0 0.0
50.0 45.0 0.0
55.0 45.0 0.0
60.0 45.0 0.0
65.0 45.0 0.0
70.0 45.0 0.0
75.0 45.0 0.0
80.0 45.0 0.0
85.0 45.0 0.0
90.0 45.0 0.0
95.0 45.0 0.0
100.0 45.0 0.0
0.0 50.0 0.0
5.0 50.0 0.0
10.0 50.0 0.0
15.0 50.0 0.0
20.0 50.0 0.0
25.0 50.0 0.0
30.0 50.0 0.0
35.0 50.0 0.0
40.0 50.0 0.0
45.0 50.0 0.0
50.0 50.0 0.0
55.0 50.0 0.0
60.0 50.0 0.0
65.0 50.0 0.0
70.0 50.0 0.0
75.0 50.0 0.0
80.0 50.0 0.0
85.0 50.0 0.0
90.0 50.0 0.0
95.0 50.0 0.0
100.0 50.0 0.0

CELLS 200 1000
4 0 1 22 21
4 1 2 23 22
4 2 3 24 23
4 3 4 25 24
4 4 5 26 25
4 5 6 27 26
4 6 7 28 27
4 7 8 29 28
4 8 9 30 29
4 9 10 31 30
4 10 11 32 31
4 11 12 33 32
4 12 13 34 33
4 13 14 35 34
4 14 15 36 35
4 15 16 37 36
4 16 17 38 37
4 17 18 39 38
4 18 19 40 39
4 19 20 41 40
4 21 22 43 42
4 22 23 44 43
4 23 24 45 44
4 24 25 46 45
4 25 26 47 46
4 26 27 48 47
4 27 28 49 48
4 28 29 50 49
4 29 30 51 50
4 30 31 52 51
4 31 32 53 52
4 32 33 54 53
4 33 34 55 54
4 34 35 56 55
4 35 36 57 56
4 36 37 58 57
4 37 38 59 58
4 38 39 60 59
4 39 40 61 60
4 40 41 62 61
4 42 43 64 63
4 43 44 65 64
4 44 45 66 65
4 45 46 67 66
4 46 47 68 67
4 47 48 69 68
4 48 49 70 69
4 49 50 71 70
4 50 51 72 71
4 51 52 73 72
4 52 53 74 73
4 53 54 75 74
4 54 55 76 75
4 55 56 77 76
4 56 57 78 77
4 57 58 79 78
4 58 59 80 79
4 59 60 81 80
4 60 61 82 81
4 61 62 83 82
4 63 64 85 84
4 64 65 86 85
4 65 66 87 86
4 66 67 88 87
4 67 68 89 88
4 68 69 90 89
4 69 70 91 90
4 70 71 92 91
4 71 72 93 92
4 72 73 94 93
4 73 74 95 94
4 74 75 96 95
4 75 76 97 96
4 76 77 98 97
4 77 78 99 98
4 78 79 100 99
4 79 80 101 100
4 80 81 102 101
4 81 82 103 102
4 82 83 104 103
4 84 85 106 105
4 85 86 107 106
4 86 87 108 107
4 87 88 109 108
4 88 89 110 109
4 89 90 111 110
4 90 91 112 111
4 91 92 113 112
4 92 93 114 113
4 93 94 115 114
4 94 95 116 115
4 95 96 117 116
4 96 97 118 117
4 97 98 119 118
4 98 99 120 119
4 99 100 121 120
4 100 101 122 121
4 101 102 123 122
4 102 103 124 123
4 103 104 125 124
4 105 106 127 126
4 106 107 128 127
4 107 108 129 128
4 108 109 130 129
4 109 110 131 130
4 110 111 132 131
4 111 112 133 132
4 112 113 134 133
4 113 114 135 134
4 114 115 136 135
4 115 116 137 136
4 116 117 138 137
4 117 118 139 138
4 118 119 140 139
4 119 120 141 140
4 120 121 142 141
4 121 122 143 142
4 122 123 144 143
4 123 124 145 144
4 124 125 146 145
4 126 127 148 147
4 127 128 149 148
4 128 129 150 149
4 129 130 151 150
4 130 131 152 151
4 131 132 153 152
4 132 133 154 153
4 133 134 155 154
4 134 135 156 155
4 135 136 157 156
4 136 137 158 157
4 137 138 159 158
4 138 139 160 159
4 139 140 161 160
4 140 141 162 161
4 141 142 163 162
4 142 143 164 163
4 143 144 165 164
4 144 145 166 165
4 145 146 167 166
4 147 148 169 168
4 148 149 170 169
4 149 150 171 170
4 150 151 172 171
4 151 152 173 172
4 152 153 174 173
4 153 154 175 174
4 154 155 176 175
4 155 156 177 176
4 156 157 178 177
4 157 158 179 178
4 158 159 180 179
4 159 160 181 180
4 160 161 182 181
4 161 162 183 182
4 162 163 184 183
4 163 164 185 184
4 164 165 186 185
4 165 166 187 186
4 166 167 188 187
4 168 169 190 189
4 169 170 191 190
4 170 171 192 191
4 171 172 193 192
4 172 173 194 193
4 173 174 195 194
4 174 175 196 195
4 175 176 197 196
4 176 177 198 197
4 177 178 199 198
4 178 179 200 199
4 179 180 201 200
4 180 181 202 201
4 181 182 203 202
4 182 183 204 203
4 183 184 205 204
4 184 185 206 205
4 185 186 207 206
4 186 187 208 207
4 187 188 209 208
4 189 190 211 210
4 190 191 212 211
4 191 192 213 212
4 192 193 214 213
4 193 194 215 214
4 194 195 216 215
4 195 196 217 216
4 196 197 218 217
4 197 198 219 218
4 198 199 220 219
4 199 200 221 220
4 200 201 222 221
4 201 202 223 222
4 202 203 224 223
4 203 204 225 224
4 204 205 226 225
4 205 206 227 226
4 206 207 228 227
4 207 208 229 228
4 208 209 230 229

CELL_TYPES 200
9
9
9
9
9
9
9
9
9
9
9
9
9
9
9
9
9
9
9
9
9
9
9
9
9
9
9
9
9
9
9
9
9
9
9
9
9
9
9
9
9
9
9
9
9
9
9
9
9
9
9
9
9
9
9
9
9
9
9
9
9
9
9
9
9
9
9
9
9
9
9
9
9
9
9
9
9
9
9
9
9
9
9
9
9
9
9
9
9
9
9
9
9
9
9
9
9
9
9
9
9
9
9
9
9
9
9
9
9
9
9
9
9
9
9
9
9
9
9
9
9
9
9
9
9
9
9
9
9
9
9
9
9
9
9
9
9
9
9
9
9
9
9
9
9
9
9
9
9
9
9
9
9
9
9
9
9
9
9
9
9
9
9
9
9
9
9
9
9
9
9
9
9
9
9
9
9
9
9
9
9
9
9
9
9
9
9
9
9
9
9
9
9
9
9
9
9
9
9
9

POINT_DATA 231
SCALARS Head float 1
LOOKUP_TABLE default
10.0
9.750000000000002
9.500000000000004
9.250000000000004
9.000000000000005
8.750000000000005
8.500000000000012
8.25000000000002
8.000000000000021
7.75000000000002
7.500000000000021
7.250000000000017
7.000000000000019
6.750000000000018
6.500000000000015
6.250000000000011
6.000000000000009
5.75000000000001
5.500000000000008
5.250000000000004
5.0
10.0
9.750000000000002
9.500000000000004
9.250000000000004
9.000000000000005
8.750000000000007
8.500000000000014
8.250000000000018
8.000000000000021
7.750000000000023
7.500000000000021
7.25000000000002
7.000000000000018
6.750000000000018
6.500000000000015
6.25000000000001
6.00000000000001
5.750000000000009
5.500000000000007
5.250000000000004
5.0
10.0
9.750000000000002
9.500000000000004
9.250000000000007
9.000000000000007
8.75000000000001
8.500000000000012
8.250000000000014
8.000000000000021
7.750000000000021
7.50000000000002
7.250000000000018
7.000000000000017
6.750000000000018
6.500000000000017
6.250000000000012
6.000000000000009
5.750000000000011
5.500000000000007
5.250000000000004
5.0
10.0
9.750000000000002
9.500000000000007
9.250000000000009
9.00000000000001
8.750000000000014
8.500000000000012
8.250000000000018
8.00000000000002
7.750000000000021
7.500000000000018
7.250000000000018
7.0000000000000195
6.750000000000018
6.500000000000015
6.250000000000014
6.000000000000009
5.750000000000007
5.500000000000006
5.250000000000004
5.0
10.0
9.750000000000005
9.500000000000007
9.250000000000009
9.00000000000001
8.750000000000014
8.50000000000002
8.250000000000021
8.000000000000018
7.750000000000018
7.500000000000014
7.250000000000016
7.000000000000021
6.750000000000019
6.500000000000019
6.250000000000014
6.000000000000007
5.750000000000006
5.5000000000000036
5.250000000000003
5.0
10.0
9.750000000000004
9.500000000000004
9.250000000000009
9.000000000000014
8.750000000000016
8.500000000000021
8.250000000000021
8.00000000000002
7.750000000000013
7.5000000000000115
7.250000000000014
7.000000000000018
6.750000000000019
6.500000000000015
6.2500000000000115
6.000000000000009
5.750000000000005
5.500000000000002
5.250000000000003
5.0
10.0
9.75
9.500000000000007
9.25000000000001
9.00000000000002
8.750000000000025
8.500000000000021
8.250000000000021
8.00000000000002
7.750000000000018
7.500000000000016
7.250000000000014
7.000000000000015
6.7500000000000115
6.500000000000013
6.2500000000000115
6.000000000000008
5.750000000000007
5.500000000000003
5.25
5.0
10.0
9.750000000000002
9.500000000000007
9.25000000000001
9.00000000000002
8.750000000000021
8.500000000000021
8.25000000000002
8.00000000000002
7.750000000000019
7.500000000000018
7.250000000000012
7.0000000000000115
6.750000000000014
6.500000000000012
6.250000000000011
6.000000000000011
5.750000000000006
5.500000000000003
5.250000000000002
5.0
10.0
9.750000000000004
9.500000000000009
9.250000000000014
9.00000000000002
8.750000000000025
8.500000000000021
8.250000000000025
8.000000000000025
7.75000000000002
7.500000000000017
7.250000000000015
7.000000000000016
6.750000000000015
6.500000000000012
6.25000000000001
6.000000000000009
5.750000000000008
5.500000000000005
5.250000000000002
5.0
10.0
9.750000000000007
9.500000000000009
9.250000000000014
9.00000000000002
8.750000000000023
8.500000000000023
8.250000000000027
8.000000000000025
7.750000000000021
7.500000000000019
7.250000000000019
7.000000000000018
6.750000000000016
6.500000000000012
6.250000000000011
6.00000000000001
5.750000000000007
5.500000000000005
5.250000000000002
5.0
10.0
9.750000000000005
9.500000000000009
9.250000000000012
9.000000000000018
8.750000000000025
8.500000000000027
8.250000000000028
8.000000000000027
7.7500000000000195
7.500000000000021
7.250000000000022
7.000000000000018
6.750000000000016
6.500000000000016
6.250000000000014
6.000000000000009
5.750000000000007
5.500000000000004
5.250000000000003
5.0

SCALARS Hydraulic_Gradient float 1
LOOKUP_TABLE default
0.04999999999999938
0.04999999999999961
0.04999999999999998
0.04999999999999983
0.049999999999999725
0.04999999999999931
0.04999999999999865
0.049999999999999115
0.04999999999999973
0.04999999999999991
0.05000000000000032
0.05000000000000034
0.04999999999999999
0.05000000000000021
0.050000000000000676
0.050000000000000495
0.049999999999999996
0.05000000000000017
0.050000000000000495
0.05000000000000079
0.05000000000000092
0.04999999999999942
0.04999999999999957
0.049999999999999746
0.049999999999999704
0.04999999999999965
0.04999999999999906
0.04999999999999893
0.04999999999999921
0.04999999999999936
0.04999999999999986
0.050000000000000266
0.05000000000000024
0.04999999999999997
0.05000000000000015
0.05000000000000069
0.050000000000000544
0.05000000000000001
0.05000000000000016
0.050000000000000426
0.050000000000000676
0.050000000000000856
0.04999999999999949
0.04999999999999956
0.049999999999999455
0.04999999999999957
0.049999999999999545
0.04999999999999937
0.049999999999999434
0.04999999999999911
0.0499999999999993
0.04999999999999999
0.05000000000000028
0.0500000000000002
0.04999999999999991
0.050000000000000065
0.050000000000000495
0.05000000000000066
0.05000000000000018
0.05000000000000015
0.05000000000000056
0.050000000000000704
0.05000000000000091
0.04999999999999952
0.049999999999999344
0.049999999999999434
0.04999999999999972
0.04999999999999946
0.049999999999999635
0.04999999999999959
0.04999999999999939
0.049999999999999746
0.050000000000000246
0.050000000000000364
0.04999999999999986
0.049999999999999954
0.05000000000000037
0.05000000000000041
0.05000000000000076
0.05000000000000061
0.050000000000000266
0.05000000000000041
0.05000000000000066
0.05000000000000086
0.04999999999999918
0.049999999999999274
0.04999999999999954
0.049999999999999524
0.049999999999999406
0.049999999999999295
0.04999999999999932
0.049999999999999954
0.050000000000000336
0.05000000000000046
0.05000000000000019
0.04999999999999945
0.04999999999999974
0.05000000000000031
0.0500000000000005
0.05000000000000099
0.05000000000000076
0.05000000000000042
0.05000000000000037
0.05000000000000039
0.05000000000000059
0.04999999999999922
0.04999999999999945
0.04999999999999935
0.04999999999999896
0.04999999999999913
0.04999999999999931
0.049999999999999566
0.050000000000000155
0.050000000000000606
0.0500000000000006
0.05000000000000003
0.04999999999999945
0.049999999999999656
0.0500000000000002
0.05000000000000052
0.05000000000000073
0.05000000000000064
0.050000000000000565
0.050000000000000364
0.05000000000000018
0.05000000000000036
0.04999999999999984
0.04999999999999934
0.04999999999999909
0.0499999999999988
0.04999999999999882
0.04999999999999977
0.05000000000000022
0.050000000000000246
0.05000000000000042
0.05000000000000041
0.050000000000000336
0.05000000000000007
0.05000000000000008
0.0500000000000002
0.050000000000000246
0.050000000000000565
0.05000000000000052
0.05000000000000059
0.05000000000000063
0.05000000000000028
0.05000000000000011
0.04999999999999962
0.049999999999999274
0.04999999999999916
0.049999999999998816
0.049999999999998934
0.049999999999999836
0.05000000000000018
0.050000000000000155
0.050000000000000266
0.05000000000000035
0.0500000000000006
0.0500000000000005
0.04999999999999992
0.050000000000000044
0.050000000000000364
0.05000000000000032
0.05000000000000041
0.05000000000000066
0.05000000000000054
0.05000000000000033
0.05000000000000031
0.04999999999999912
0.04999999999999908
0.04999999999999896
0.04999999999999882
0.04999999999999893
0.049999999999999614
0.049999999999999885
0.04999999999999966
0.05000000000000027
0.05000000000000067
0.0500000000000005
0.05000000000000009
0.04999999999999989
0.0500000000000002
0.05000000000000041
0.05000000000000022
0.05000000000000017
0.05000000000000039
0.05000000000000051
0.05000000000000042
0.05000000000000035
0.04999999999999859
0.049999999999998955
0.049999999999999094
0.049999999999998775
0.04999999999999884
0.04999999999999945
0.04999999999999958
0.049999999999999704
0.05000000000000047
0.050000000000000495
0.050000000000000065
0.049999999999999996
0.05000000000000016
0.05000000000000029
0.05000000000000038
0.05000000000000028
0.05000000000000025
0.05000000000000038
0.05000000000000047
0.05000000000000047
0.05000000000000035
0.0499999999999988
0.04999999999999897
0.049999999999999246
0.049999999999999066
0.04999999999999887
0.04999999999999923
0.04999999999999965
0.04999999999999988
0.05000000000000077
0.05000000000000053
0.049999999999999815
0.050000000000000176
0.05000000000000046
0.05000000000000024
0.05000000000000025
0.05000000000000056
0.05000000000000055
0.0500000000000005
0.050000000000000475
0.05000000000000051
0.05000000000000051

VECTORS Velocity float
1.4285714285714111e-05 1.057355261547768e-20 0.0
1.4285714285714174e-05 3.275767182750405e-20 0.0
1.4285714285714285e-05 1.8313930346510138e-20 0.0
1.4285714285714235e-05 3.870188865516228e-21 0.0
1.4285714285714213e-05 -3.120215085589754e-20 0.0
1.4285714285714094e-05 -6.943638572171626e-20 0.0
1.4285714285713906e-05 -1.0006917638588637e-19 0.0
1.428571428571403e-05 3.0114283673634626e-20 0.0
1.4285714285714211e-05 -2.3790493384824773e-20 0.0
1.4285714285714267e-05 -8.633372862600377e-20 0.0
1.4285714285714382e-05 -4.125719648083975e-20 0.0
1.4285714285714387e-05 -7.259828086612116e-20 0.0
1.4285714285714284e-05 3.5401059981373475e-20 0.0
1.4285714285714351e-05 -3.161895144404923e-21 0.0
1.4285714285714482e-05 1.9730517788732762e-20 0.0
1.4285714285714433e-05 5.805283298274339e-21 0.0
1.4285714285714287e-05 -1.5152035202105206e-20 0.0
1.4285714285714335e-05 1.656862264432784e-20 0.0
1.4285714285714433e-05 3.700743415417189e-20 0.0
1.4285714285714512e-05 3.3516818749807306e-21 0.0
1.428571428571455e-05 -6.703363749961447e-21 0.0
1.4285714285714118e-05 1.4165874422226151e-21 0.0
1.4285714285714167e-05 1.935094432758113e-21 0.0
1.4285714285714218e-05 -1.5341821932681022e-20 0.0
1.4285714285714208e-05 -1.0006917638588634e-19 0.0
1.4285714285714189e-05 -7.710729668805675e-20 0.0
1.4285714285714021e-05 -1.0361064499144288e-19 0.0
1.428571428571398e-05 1.0573552615477685e-20 0.0
1.4285714285714064e-05 9.655313438092577e-20 0.0
1.4285714285714104e-05 2.907726969256362e-20 0.0
1.4285714285714246e-05 1.9117117432909317e-20 0.0
1.4285714285714363e-05 1.224939355296803e-20 0.0
1.4285714285714355e-05 8.474098052739723e-21 0.0
1.4285714285714279e-05 3.691254078888397e-20 0.0
1.4285714285714331e-05 -2.105221186566746e-20 0.0
1.4285714285714487e-05 -5.754113902930388e-20 0.0
1.4285714285714445e-05 -6.13164345295322e-20 0.0
1.4285714285714287e-05 -2.449878710593609e-20 0.0
1.4285714285714335e-05 -2.237390594260218e-20 0.0
1.4285714285714409e-05 1.8313930346510116e-20 0.0
1.4285714285714482e-05 -2.2892412933137555e-21 0.0
1.4285714285714528e-05 -1.3216940769347097e-20 0.0
1.4285714285714143e-05 0.0 0.0
1.4285714285714162e-05 -3.507233972141377e-20 0.0
1.4285714285714135e-05 -1.0502723243366548e-19 0.0
1.4285714285714169e-05 -1.261743376646209e-19 0.0
1.428571428571416e-05 -1.2671827125575236e-19 0.0
1.4285714285714106e-05 -1.4139583963141798e-19 0.0
1.4285714285714126e-05 4.597461259685115e-20 0.0
1.4285714285714031e-05 4.467834512051239e-20 0.0
1.4285714285714089e-05 4.809949376018507e-20 0.0
1.4285714285714287e-05 7.004978607753965e-20 0.0
1.4285714285714368e-05 9.145614480376273e-20 0.0
1.4285714285714346e-05 5.251361621683276e-20 0.0
1.4285714285714267e-05 -1.9730517788732747e-20 0.0
1.4285714285714309e-05 -4.493759861578016e-20 0.0
1.4285714285714431e-05 -3.781062124057108e-20 0.0
1.4285714285714479e-05 -1.0245331104448804e-19 0.0
1.4285714285714336e-05 -1.3571087629902765e-20 0.0
1.428571428571433e-05 3.110725749060965e-20 0.0
1.4285714285714445e-05 2.669313503396196e-20 0.0
1.4285714285714489e-05 -1.9022224067621448e-20 0.0
1.4285714285714546e-05 -5.995070028850149e-21 0.0
1.4285714285714148e-05 -3.842402159639451e-20 0.0
1.4285714285714099e-05 -1.1418419760692059e-19 0.0
1.4285714285714131e-05 -1.2404945650128695e-19 0.0
1.4285714285714216e-05 -5.2159469356277117e-20 0.0
1.4285714285714135e-05 -7.814431066912777e-20 0.0
1.4285714285714185e-05 -1.0177044392397269e-19 0.0
1.4285714285714172e-05 -1.6308687845350485e-19 0.0
1.4285714285714116e-05 -1.3514151610730013e-19 0.0
1.4285714285714211e-05 5.345573683261584e-20 0.0
1.4285714285714358e-05 9.39351728276523e-20 0.0
1.4285714285714392e-05 1.3233376782345083e-19 0.0
1.428571428571425e-05 2.475804060120384e-20 0.0
1.4285714285714268e-05 -8.175524603937623e-20 0.0
1.4285714285714394e-05 -7.014467944282759e-20 0.0
1.4285714285714409e-05 -7.965579147663831e-20 0.0
1.42857142857145e-05 -5.435381728430296e-20 0.0
1.4285714285714462e-05 4.422930489466884e-20 0.0
1.4285714285714363e-05 1.0889742129918174e-19 0.0
1.4285714285714404e-05 1.0096725683757349e-19 0.0
1.4285714285714477e-05 3.1107257490609656e-20 0.0
1.4285714285714534e-05 1.321694076934712e-20 0.0
1.4285714285714055e-05 -3.172065784643306e-20 0.0
1.4285714285714082e-05 -3.4174259269726706e-20 0.0
1.4285714285714155e-05 6.976510598167593e-20 0.0
1.4285714285714152e-05 1.1990140057700297e-20 0.0
1.4285714285714118e-05 -4.5905145832159187e-20 0.0
1.4285714285714087e-05 -8.468331428910931e-20 0.0
1.42857142857141e-05 -1.8201420915583844e-19 0.0
1.4285714285714274e-05 -9.409953295763218e-20 0.0
1.4285714285714382e-05 2.256369267317797e-20 0.0
1.4285714285714421e-05 1.5454331363607318e-19 0.0
1.4285714285714343e-05 1.5296236606387074e-19 0.0
1.4285714285714126e-05 8.123673904884074e-20 0.0
1.4285714285714213e-05 4.545610560631564e-20 0.0
1.4285714285714372e-05 -2.440389374064819e-20 0.0
1.4285714285714436e-05 -1.0668445980765555e-20 0.0
1.4285714285714572e-05 2.8723122832007995e-20 0.0
1.42857142857145e-05 1.1022592841321244e-20 0.0
1.428571428571441e-05 4.793513363020522e-20 0.0
1.4285714285714397e-05 1.0025896311646217e-19 0.0
1.4285714285714402e-05 3.1202150855897567e-20 0.0
1.4285714285714455e-05 1.5152035202105224e-20 0.0
1.4285714285714067e-05 2.0110091249884368e-20 0.0
1.4285714285714128e-05 9.549069379925885e-20 0.0
1.4285714285714104e-05 3.700743415417187e-20 0.0
1.4285714285713992e-05 -7.40148683083438e-20 0.0
1.4285714285714033e-05 -1.9728656432382755e-19 0.0
1.4285714285714089e-05 -2.290766889349525e-19 0.0
1.4285714285714165e-05 -4.161134334139538e-20 0.0
1.428571428571433e-05 1.5411288697372967e-20 0.0
1.4285714285714465e-05 -1.4538634846281797e-20 0.0
1.428571428571446e-05 -2.5112187461759423e-20 0.0
1.42857142857143e-05 -4.606950596213902e-20 0.0
1.4285714285714128e-05 3.3301605418635506e-20 0.0
1.4285714285714185e-05 1.4890239046777868e-19 0.0
1.4285714285714341e-05 1.3932181166927606e-19 0.0
1.428571428571444e-05 1.3304206154456217e-19 0.0
1.4285714285714495e-05 4.987022806296334e-20 0.0
1.4285714285714472e-05 -1.5411288697372964e-20 0.0
1.4285714285714453e-05 -2.1406358726223118e-20 0.0
1.4285714285714392e-05 2.827408260616443e-20 0.0
1.4285714285714341e-05 3.1720657846433064e-20 0.0
1.4285714285714387e-05 2.1855398952066686e-20 0.0
1.4285714285714245e-05 1.1990140057700294e-20 0.0
1.4285714285714104e-05 3.2757671827504024e-20 0.0
1.4285714285714026e-05 -5.196968262570129e-20 0.0
1.4285714285713948e-05 -5.957112682734985e-20 0.0
1.4285714285713948e-05 -1.2907697931375805e-19 0.0
1.4285714285714223e-05 -1.2527625721293366e-19 0.0
1.4285714285714348e-05 -9.675472163790436e-22 0.0
1.4285714285714353e-05 4.229421046191072e-20 0.0
1.4285714285714404e-05 -3.187321745000875e-21 0.0
1.4285714285714406e-05 -1.1956586727994732e-19 0.0
1.428571428571438e-05 -1.35236409472588e-19 0.0
1.4285714285714309e-05 1.7536169860706888e-20 0.0
1.4285714285714314e-05 1.4942089745831417e-19 0.0
1.4285714285714343e-05 1.0660818000586793e-19 0.0
1.4285714285714358e-05 6.070303417370873e-20 0.0
1.4285714285714453e-05 -3.2567885096928304e-21 0.0
1.428571428571444e-05 -3.858838172637437e-20 0.0
1.4285714285714457e-05 -3.73615810147275e-20 0.0
1.4285714285714467e-05 -3.207480470698868e-20 0.0
1.4285714285714363e-05 -1.67584093749039e-21 0.0
1.428571428571432e-05 1.0573552615477664e-20 0.0
1.4285714285714179e-05 -3.700743415417188e-20 0.0
1.4285714285714082e-05 -5.744624566401595e-20 0.0
1.428571428571405e-05 -4.8289280490760896e-20 0.0
1.4285714285713952e-05 -4.687269304853828e-20 0.0
1.4285714285713986e-05 -4.4904022584354985e-22 0.0
1.428571428571424e-05 3.559084671194931e-20 0.0
1.4285714285714338e-05 1.9022224067621467e-20 0.0
1.4285714285714331e-05 -6.282791533704265e-20 0.0
1.4285714285714363e-05 -1.3146111397235966e-19 0.0
1.4285714285714389e-05 -9.216443852487403e-20 0.0
1.4285714285714457e-05 -1.8693503807661758e-20 0.0
1.4285714285714431e-05 -2.3436346524269122e-20 0.0
1.4285714285714263e-05 -4.1680810106087306e-20 0.0
1.42857142857143e-05 -9.848822881368392e-20 0.0
1.4285714285714385e-05 -3.929667544748566e-20 0.0
1.428571428571438e-05 1.1186952971301092e-20 0.0
1.4285714285714406e-05 -2.237390594260218e-20 0.0
1.4285714285714479e-05 -4.264835732246638e-20 0.0
1.428571428571444e-05 -6.863319863531701e-20 0.0
1.4285714285714382e-05 -5.0129481558231086e-20 0.0
1.428571428571438e-05 -1.0055045624942167e-20 0.0
1.4285714285714038e-05 -5.1830749096317405e-20 0.0
1.4285714285714026e-05 -1.1805438647243684e-19 0.0
1.4285714285713992e-05 -7.085297316393886e-20 0.0
1.4285714285713952e-05 -6.995489271225174e-20 0.0
1.428571428571398e-05 -4.4324198259956745e-20 0.0
1.4285714285714184e-05 -3.52366998513936e-20 0.0
1.4285714285714252e-05 -4.5481532206911594e-20 0.0
1.4285714285714194e-05 -1.7356553770369464e-19 0.0
1.4285714285714365e-05 -1.509323782658247e-19 0.0
1.4285714285714479e-05 -9.339123923652088e-20 0.0
1.4285714285714431e-05 -6.037431391374905e-20 0.0
1.4285714285714314e-05 -1.6379517217461615e-19 0.0
1.4285714285714253e-05 -1.571867017899426e-19 0.0
1.4285714285714343e-05 -6.776054478422589e-20 0.0
1.4285714285714402e-05 -2.4852933966491738e-20 0.0
1.4285714285714346e-05 -7.670910966340522e-21 0.0
1.4285714285714336e-05 -3.541468605556625e-22 0.0
1.4285714285714397e-05 -1.8857863937641557e-20 0.0
1.4285714285714436e-05 -4.4229304894668816e-20 0.0
1.4285714285714404e-05 -9.960152259654292e-21 0.0
1.4285714285714387e-05 -1.0317481844931627e-36 0.0
1.4285714285713884e-05 1.3027154038771304e-20 0.0
1.428571428571399e-05 -3.101236412532173e-20 0.0
1.4285714285714025e-05 -1.4165874422226067e-21 0.0
1.4285714285713936e-05 4.1585916740799437e-20 0.0
1.4285714285713957e-05 2.1248811633339223e-21 0.0
1.4285714285714133e-05 -8.119951192184058e-21 0.0
1.4285714285714169e-05 -1.0396479185199854e-19 0.0
1.4285714285714199e-05 -1.1286250352998586e-19 0.0
1.4285714285714423e-05 -4.3970051399401085e-20 0.0
1.4285714285714436e-05 7.999631226300197e-21 0.0
1.4285714285714302e-05 -1.0696232686642362e-19 0.0
1.4285714285714287e-05 -1.6344102531406046e-19 0.0
1.4285714285714335e-05 -5.799017925514741e-20 0.0
1.4285714285714368e-05 -9.346751903830873e-21 0.0
1.4285714285714389e-05 -9.013445072682806e-20 0.0
1.4285714285714372e-05 -1.1092740909722776e-19 0.0
1.4285714285714358e-05 -2.9267056423139435e-20 0.0
1.4285714285714392e-05 1.0219405754922025e-20 0.0
1.4285714285714416e-05 1.9117117432909354e-20 0.0
1.4285714285714421e-05 -1.2862793908791461e-20 0.0
1.4285714285714385e-05 -9.34675190383088e-21 0.0
1.4285714285713947e-05 7.401486830834377e-20 0.0
1.4285714285713992e-05 6.58949171161597e-20 0.0
1.428571428571407e-05 1.0953126076629305e-20 0.0
1.4285714285714021e-05 8.704202234711508e-20 0.0
1.4285714285713965e-05 6.58949171161597e-20 0.0
1.4285714285714067e-05 -6.098771426957249e-20 0.0
1.428571428571419e-05 -1.562886213382555e-19 0.0
1.4285714285714253e-05 -1.0644381987588812e-19 0.0
1.428571428571451e-05 -5.2159469356277117e-20 0.0
1.4285714285714436e-05 3.204937810639274e-20 0.0
1.4285714285714235e-05 -1.01485763828109e-19 0.0
1.4285714285714335e-05 -1.3726639727063409e-19 0.0
1.428571428571442e-05 -1.5341821932681022e-20 0.0
1.4285714285714358e-05 1.7453077021823057e-21 0.0
1.4285714285714358e-05 -1.4326146729948422e-19 0.0
1.4285714285714443e-05 -2.0122621995403566e-19 0.0
1.4285714285714443e-05 -3.8424021596394493e-20 0.0
1.4285714285714431e-05 -1.2318860317660002e-20 0.0
1.4285714285714423e-05 1.2508647048235786e-20 0.0
1.4285714285714431e-05 -3.681764742359609e-20 0.0
1.4285714285714433e-05 -2.785046898091682e-20 0.0

VECTORS Darcy_Flux float
4.9999999999999386e-06 3.700743415417188e-21 0.0
4.999999999999961e-06 1.1465185139626416e-20 0.0
4.9999999999999996e-06 6.4098756212785474e-21 0.0
4.999999999999982e-06 1.3545661029306797e-21 0.0
4.999999999999974e-06 -1.092075279956414e-20 0.0
4.999999999999933e-06 -2.430273500260069e-20 0.0
4.999999999999867e-06 -3.502421173506023e-20 0.0
4.99999999999991e-06 1.0539999285772119e-20 0.0
4.999999999999973e-06 -8.32667268468867e-21 0.0
4.999999999999993e-06 -3.021680501910132e-20 0.0
5.0000000000000334e-06 -1.444001876829391e-20 0.0
5.000000000000035e-06 -2.5409398303142407e-20 0.0
4.999999999999999e-06 1.2390370993480715e-20 0.0
5.0000000000000224e-06 -1.106663300541723e-21 0.0
5.000000000000068e-06 6.905681226056467e-21 0.0
5.000000000000051e-06 2.0318491543960187e-21 0.0
5e-06 -5.303212320736822e-21 0.0
5.0000000000000165e-06 5.7990179255147435e-21 0.0
5.000000000000051e-06 1.295260195396016e-20 0.0
5.000000000000079e-06 1.1730886562432556e-21 0.0
5.000000000000092e-06 -2.3461773124865063e-21 0.0
4.999999999999941e-06 4.958056047779152e-22 0.0
4.999999999999958e-06 6.772830514653395e-22 0.0
4.999999999999976e-06 -5.369637676438357e-21 0.0
4.9999999999999725e-06 -3.502421173506022e-20 0.0
4.999999999999966e-06 -2.6987553840819864e-20 0.0
4.999999999999907e-06 -3.6263725747005003e-20 0.0
4.999999999999893e-06 3.7007434154171894e-21 0.0
4.999999999999922e-06 3.3793597033324015e-20 0.0
4.999999999999936e-06 1.0177044392397267e-20 0.0
4.999999999999986e-06 6.6909911015182605e-21 0.0
5.000000000000027e-06 4.28728774353881e-21 0.0
5.000000000000024e-06 2.965934318458903e-21 0.0
4.999999999999997e-06 1.2919389276109389e-20 0.0
5.000000000000016e-06 -7.368274152983611e-21 0.0
5.00000000000007e-06 -2.0139398660256356e-20 0.0
5.0000000000000555e-06 -2.146075208533627e-20 0.0
5e-06 -8.574575487077631e-21 0.0
5.0000000000000165e-06 -7.830867079910763e-21 0.0
5.000000000000043e-06 6.40987562127854e-21 0.0
5.000000000000068e-06 -8.012344526598144e-22 0.0
5.000000000000084e-06 -4.625929269271484e-21 0.0
4.99999999999995e-06 0.0 0.0
4.999999999999956e-06 -1.227531890249482e-20 0.0
4.999999999999947e-06 -3.6759531351782915e-20 0.0
4.999999999999959e-06 -4.416101818261731e-20 0.0
4.9999999999999555e-06 -4.435139493951332e-20 0.0
4.999999999999937e-06 -4.948854387099629e-20 0.0
4.999999999999944e-06 1.6091114408897902e-20 0.0
4.999999999999911e-06 1.5637420792179334e-20 0.0
4.999999999999931e-06 1.6834822816064773e-20 0.0
5e-06 2.4517425127138876e-20 0.0
5.000000000000028e-06 3.200965068131695e-20 0.0
5.000000000000021e-06 1.8379765675891464e-20 0.0
4.999999999999993e-06 -6.905681226056461e-21 0.0
5.000000000000008e-06 -1.5728159515523055e-20 0.0
5.00000000000005e-06 -1.3233717434199877e-20 0.0
5.000000000000067e-06 -3.585865886557081e-20 0.0
5.000000000000017e-06 -4.749880670465967e-21 0.0