# vtk DataFile Version 3.0
Meteo Turbulence Simulation Result
ASCII
DATASET RECTILINEAR_GRID
DIMENSIONS 9 9 5
X_COORDINATES 9 double
0.000000 62.500000 125.000000 187.500000 250.000000 312.500000 375.000000 437.500000 500.000000
Y_COORDINATES 9 double
0.000000 62.500000 125.000000 187.500000 250.000000 312.500000 375.000000 437.500000 500.000000
Z_COORDINATES 5 double
0.000000 34.944042 64.421112 85.922619 100.000000
CELL_DATA 256
SCALARS u double 1
LOOKUP_TABLE default
0.00000000e+00
2.99664500e+00
2.88675452e+00
2.85255297e+00
0.00000000e+00
2.85833852e+00
3.05977568e+00
2.73684475e+00
0.00000000e+00
2.68187523e+00
2.91133252e+00
2.99014440e+00
0.00000000e+00
2.89457011e+00
3.11491835e+00
2.91114159e+00
0.00000000e+00
2.75972591e+00
2.95728423e+00
2.87427384e+00
0.00000000e+00
2.74014715e+00
2.94341055e+00
3.08350047e+00
0.00000000e+00
3.02605057e+00
3.07779011e+00
3.00864815e+00
0.00000000e+00
2.82713358e+00
2.96009369e+00
3.14413774e+00
0.00000000e+00
2.99664500e+00
2.88675452e+00
2.85255297e+00
0.00000000e+00
2.85833852e+00
3.05977568e+00
2.73684475e+00
0.00000000e+00
2.68187523e+00
2.91133252e+00
2.99014440e+00
0.00000000e+00
2.89457011e+00
3.11491835e+00
2.91114159e+00
0.00000000e+00
2.75972591e+00
2.95728423e+00
2.87427384e+00
0.00000000e+00
2.74014715e+00
2.94341055e+00
3.08350047e+00
0.00000000e+00
3.02605057e+00
3.07779011e+00
3.00864815e+00
0.00000000e+00
2.82713358e+00
2.96009369e+00
3.14413774e+00
0.00000000e+00
2.73827456e+00
3.02423781e+00
3.09066757e+00
0.00000000e+00
2.74828357e+00
3.01521730e+00
2.85923723e+00
0.00000000e+00
2.76523802e+00
2.92333003e+00
3.22650811e+00
0.00000000e+00
2.64854161e+00
2.71269639e+00
2.99131773e+00
0.00000000e+00
2.86376749e+00
2.89716232e+00
3.12065826e+00
0.00000000e+00
2.72911616e+00
2.89742986e+00
2.79147665e+00
0.00000000e+00
2.64210051e+00
3.05396407e+00
3.09346728e+00
0.00000000e+00
2.98292257e+00
3.01002275e+00
2.98874610e+00
0.00000000e+00
2.94467495e+00
2.87818227e+00
2.87897615e+00
0.00000000e+00
2.80147949e+00
2.84875490e+00
3.12762237e+00
0.00000000e+00
2.59912966e+00
2.94928467e+00
3.00916501e+00
0.00000000e+00
3.03034882e+00
2.85232040e+00
3.06762200e+00
0.00000000e+00
2.72727679e+00
2.80163914e+00
2.92463018e+00
0.00000000e+00
2.76421402e+00
2.96928311e+00
3.00095714e+00
0.00000000e+00
2.81867250e+00
2.75463567e+00
2.97672787e+00
0.00000000e+00
2.83755697e+00
2.97368668e+00
3.03043880e+00
0.00000000e+00
2.93169505e+00
2.89966430e+00
3.02937319e+00
0.00000000e+00
2.85216258e+00
3.03091982e+00
3.00890250e+00
0.00000000e+00
2.82113165e+00
2.85993648e+00
2.86772005e+00
0.00000000e+00
2.60725602e+00
2.92845197e+00
3.03762948e+00
0.00000000e+00
2.84755935e+00
3.08413283e+00
2.85615769e+00
0.00000000e+00
2.69747079e+00
2.93210924e+00
2.94652228e+00
0.00000000e+00
2.58134766e+00
3.12727990e+00
3.01509732e+00
0.00000000e+00
2.93158093e+00
2.73705496e+00
2.86890633e+00
0.00000000e+00
2.91133367e+00
2.73884989e+00
2.91378244e+00
0.00000000e+00
2.63021499e+00
2.97000385e+00
2.85212611e+00
0.00000000e+00
2.73745191e+00
3.03821019e+00
3.03106171e+00
0.00000000e+00
2.63943680e+00
2.84885355e+00
3.05116328e+00
0.00000000e+00
2.59031567e+00
2.81931009e+00
3.12362864e+00
0.00000000e+00
2.58419940e+00
2.81380924e+00
3.05383944e+00
0.00000000e+00
2.55437379e+00
2.69388953e+00
2.80201471e+00
0.00000000e+00
2.48353740e+00
2.66241702e+00
3.05435635e+00
0.00000000e+00
2.75987748e+00
2.82130668e+00
3.07415978e+00
0.00000000e+00
2.89844372e+00
2.92455297e+00
3.00183865e+00
0.00000000e+00
2.64400335e+00
2.90567615e+00
2.95990102e+00
0.00000000e+00
2.67707776e+00
2.73959339e+00
3.04274011e+00
0.00000000e+00
2.68864336e+00
2.49591766e+00
3.02293735e+00
0.00000000e+00
2.83946293e+00
2.87230974e+00
3.01475256e+00
0.00000000e+00
2.66223554e+00
2.77316987e+00
2.94496637e+00
0.00000000e+00
2.49802380e+00
2.91564905e+00
2.95079338e+00
0.00000000e+00
2.75987748e+00
2.82130668e+00
3.07415978e+00
0.00000000e+00
2.89844372e+00
2.92455297e+00
3.00183865e+00
0.00000000e+00
2.64400335e+00
2.90567615e+00
2.95990102e+00
0.00000000e+00
2.67707776e+00
2.73959339e+00
3.04274011e+00
0.00000000e+00
2.68864336e+00
2.49591766e+00
3.02293735e+00
0.00000000e+00
2.83946293e+00
2.87230974e+00
3.01475256e+00
0.00000000e+00
2.66223554e+00
2.77316987e+00
2.94496637e+00
0.00000000e+00
2.49802380e+00
2.91564905e+00
2.95079338e+00
SCALARS v double 1
LOOKUP_TABLE default
0.00000000e+00
5.04439208e-02
8.28400956e-02
2.07991354e-01
0.00000000e+00
5.04439208e-02
8.28400956e-02
2.07991354e-01
0.00000000e+00
7.76242677e-02
4.03664275e-02
-1.31696933e-02
0.00000000e+00
-1.00344649e-01
1.22528167e-02
9.40949182e-02
0.00000000e+00
1.12253311e-01
2.50121629e-01
1.08268894e-01
0.00000000e+00
-2.84004561e-01
-2.19370698e-01
2.35135147e-02
0.00000000e+00
-6.96264619e-02
-1.16674708e-01
8.26403382e-02
0.00000000e+00
-6.96264619e-02
-1.16674708e-01
8.26403382e-02
0.00000000e+00
1.29591982e-01
5.54849868e-02
5.79379651e-02
0.00000000e+00
1.29591982e-01
5.54849868e-02
5.79379651e-02
0.00000000e+00
2.94343147e-01
-9.72984049e-02
-2.54995961e-02
0.00000000e+00
-3.19351198e-03
1.16621527e-01
-1.04066201e-01
0.00000000e+00
1.19044563e-01
6.92866595e-02
1.07148031e-02
0.00000000e+00
9.38681400e-02
-5.48067036e-02
2.42513141e-01
0.00000000e+00
-8.60385917e-02
-4.35782980e-02
-8.09063136e-02
0.00000000e+00
-8.60385917e-02
-4.35782980e-02
-8.09063136e-02
0.00000000e+00
2.59051944e-01
5.42108514e-02
-2.13894792e-03
0.00000000e+00
2.59051944e-01
5.42108514e-02
-2.13894792e-03
0.00000000e+00
6.68389416e-02
-9.95995381e-02
-1.54485846e-01
0.00000000e+00
4.59112180e-02
5.43470018e-02
-8.03594104e-03
0.00000000e+00
-1.79655641e-02
4.99511893e-03
-1.55141958e-01
0.00000000e+00
-3.64232764e-02
5.49732667e-02
1.86023750e-01
0.00000000e+00
2.60121280e-01
-2.48382248e-02
-1.05665075e-01
0.00000000e+00
2.60121280e-01
-2.48382248e-02
-1.05665075e-01
0.00000000e+00
1.88082242e-01
-1.81479247e-01
-9.55377613e-03
0.00000000e+00
1.88082242e-01
-1.81479247e-01
-9.55377613e-03
0.00000000e+00
-8.48852096e-02
9.39762837e-02
1.19800122e-01
0.00000000e+00
-4.02017527e-01
6.74950873e-02
-1.83724054e-01
0.00000000e+00
-1.97721631e-02
-2.03040773e-02
2.65530074e-01
0.00000000e+00
7.56912846e-02
-6.52778852e-02
5.26323792e-02
0.00000000e+00
-5.98451127e-02
-5.58708508e-02
3.62015335e-02
0.00000000e+00
-5.98451127e-02
-5.58708508e-02
3.62015335e-02
0.00000000e+00
-9.26011290e-02
1.10331577e-01
-5.95905603e-02
0.00000000e+00
-9.26011290e-02
1.10331577e-01
-5.95905603e-02
0.00000000e+00
4.76158535e-02
-5.79898835e-02
9.23058307e-03
0.00000000e+00
8.14685951e-02
-3.88218088e-03
-1.36781228e-01
0.00000000e+00
-3.31136328e-01
4.67784795e-02
6.23166037e-02
0.00000000e+00
3.33458526e-01
5.64802192e-03
-6.79589942e-02
0.00000000e+00
2.12945559e-01
9.36375034e-02
-1.34970590e-01
0.00000000e+00
2.12945559e-01
9.36375034e-02
-1.34970590e-01
0.00000000e+00
5.07373977e-02
-2.11530851e-01
-3.23508898e-02
0.00000000e+00
5.07373977e-02
-2.11530851e-01
-3.23508898e-02
0.00000000e+00
-9.93721013e-02
1.33505426e-01
-2.24425912e-01
0.00000000e+00
-1.88358134e-01
-6.80043716e-02
6.21431675e-02
0.00000000e+00
4.54267372e-02
7.46492242e-02
-3.88097752e-02
0.00000000e+00
1.65642889e-01
-1.22615504e-01
-3.96033228e-02
0.00000000e+00
-2.31818727e-02
6.93401268e-02
-5.57586509e-02
0.00000000e+00
-2.31818727e-02
6.93401268e-02
-5.57586509e-02
0.00000000e+00
-1.46459771e-01
-5.29574827e-02
2.08565266e-01
0.00000000e+00
-1.46459771e-01
-5.29574827e-02
2.08565266e-01
0.00000000e+00
-9.45469338e-02
-1.81381713e-01
-5.55951778e-02
0.00000000e+00
-3.80059516e-01
-1.76867996e-01
8.79407267e-03
0.00000000e+00
9.36107493e-04
5.95897782e-03
-2.02337688e-02
0.00000000e+00
3.72483645e-02
1.66970970e-02
1.57171497e-01
0.00000000e+00
-3.23802686e-02
-1.96655807e-01
6.47226356e-02
0.00000000e+00
-3.23802686e-02
-1.96655807e-01
6.47226356e-02
0.00000000e+00
-6.40259427e-02
-6.46493908e-02
2.21371923e-02
0.00000000e+00
-6.40259427e-02
-6.46493908e-02
2.21371923e-02
0.00000000e+00
-2.42851891e-01
-4.68532400e-02
-2.22492377e-02
0.00000000e+00
-1.58814317e-01
-2.79111627e-02
1.07307942e-01
0.00000000e+00
1.96192150e-01
4.77450794e-02
1.03756534e-01
0.00000000e+00
3.26884881e-02
-7.98757665e-02
7.86507889e-02
0.00000000e+00
1.01264070e-03
-6.73250402e-02
-1.84782287e-01
0.00000000e+00
1.01264070e-03
-6.73250402e-02
-1.84782287e-01
SCALARS w double 1
LOOKUP_TABLE default
0.00000000e+00
-3.73343009e+00
-9.77114785e+00
0.00000000e+00
0.00000000e+00
-3.63329566e+00
-9.75992632e+00
0.00000000e+00
0.00000000e+00
-3.65996368e+00
-1.02387667e+01
0.00000000e+00
0.00000000e+00
-3.65195954e+00
-9.93522394e+00
0.00000000e+00
0.00000000e+00
-3.70849632e+00
-9.90803083e+00
0.00000000e+00
0.00000000e+00
-3.72521219e+00
-1.02077955e+01
0.00000000e+00
0.00000000e+00
-3.67696247e+00
-9.94995658e+00
0.00000000e+00
0.00000000e+00
-3.71462908e+00
-9.86312092e+00
0.00000000e+00
0.00000000e+00
-3.73241929e+00
-9.60793805e+00
0.00000000e+00
0.00000000e+00
-3.57050691e+00
-9.78803543e+00
0.00000000e+00
0.00000000e+00
-3.52416428e+00
-1.01255035e+01
0.00000000e+00
0.00000000e+00
-3.77602006e+00
-9.92076627e+00
0.00000000e+00
0.00000000e+00
-3.80457603e+00
-1.00688929e+01
0.00000000e+00
0.00000000e+00
-3.63465967e+00
-1.00302839e+01
0.00000000e+00
0.00000000e+00
-3.62121496e+00
-1.01727870e+01
0.00000000e+00
0.00000000e+00
-3.43810663e+00
-9.80339407e+00
0.00000000e+00
0.00000000e+00
-3.57289818e+00
-9.74062589e+00
0.00000000e+00
0.00000000e+00
-3.62923172e+00
-1.00019317e+01
0.00000000e+00
0.00000000e+00
-3.57607941e+00
-9.89573566e+00
0.00000000e+00
0.00000000e+00
-3.49391683e+00
-9.98992519e+00
0.00000000e+00
0.00000000e+00
-3.67035534e+00
-9.73674391e+00
0.00000000e+00
0.00000000e+00
-3.43676089e+00
-1.01452229e+01
0.00000000e+00
0.00000000e+00
-3.65401520e+00
-1.00964659e+01
0.00000000e+00
0.00000000e+00
-3.40090321e+00
-1.03349408e+01
0.00000000e+00
0.00000000e+00
-3.47740101e+00
-9.92265597e+00
0.00000000e+00
0.00000000e+00
-3.53933287e+00
-1.00180205e+01
0.00000000e+00
0.00000000e+00
-3.52999169e+00
-1.04592292e+01
0.00000000e+00
0.00000000e+00
-3.61739987e+00
-9.96623887e+00
0.00000000e+00
0.00000000e+00
-3.48000592e+00
-9.70444879e+00
0.00000000e+00
0.00000000e+00
-3.70150519e+00
-9.92124421e+00
0.00000000e+00
0.00000000e+00
-3.44757543e+00
-1.01045393e+01
0.00000000e+00
0.00000000e+00
-3.60138499e+00
-9.80677583e+00
0.00000000e+00
0.00000000e+00
-3.63106408e+00
-1.00663405e+01
0.00000000e+00
0.00000000e+00
-3.50668742e+00
-1.00207743e+01
0.00000000e+00
0.00000000e+00
-3.52590125e+00
-9.84414770e+00
0.00000000e+00
0.00000000e+00
-3.56299720e+00
-9.85100446e+00
0.00000000e+00
0.00000000e+00
-3.71829198e+00
-1.02286141e+01
0.00000000e+00
0.00000000e+00
-3.55603713e+00
-9.88906451e+00
0.00000000e+00
0.00000000e+00
-3.82617188e+00
-1.05044636e+01
0.00000000e+00
0.00000000e+00
-3.58549532e+00
-1.05441493e+01
0.00000000e+00
0.00000000e+00
-3.61638038e+00
-1.00734133e+01
0.00000000e+00
0.00000000e+00
-3.60762675e+00
-1.01535513e+01
0.00000000e+00
0.00000000e+00
-3.74861116e+00
-1.01789997e+01
0.00000000e+00
0.00000000e+00
-3.52890282e+00
-9.86571650e+00
0.00000000e+00
0.00000000e+00
-3.49487084e+00
-9.64098873e+00
0.00000000e+00
0.00000000e+00
-3.62004095e+00
-9.75228109e+00
0.00000000e+00
0.00000000e+00
-3.20309647e+00
-9.88676209e+00
0.00000000e+00
0.00000000e+00
-3.72827810e+00
-9.75421487e+00
0.00000000e+00
0.00000000e+00
-3.85756825e+00
-1.01805202e+01
0.00000000e+00
0.00000000e+00
-3.67992397e+00
-1.01235027e+01
0.00000000e+00
0.00000000e+00
-3.28753325e+00
-9.81479955e+00
0.00000000e+00
0.00000000e+00
-3.50706223e+00
-9.90452626e+00
0.00000000e+00
0.00000000e+00
-3.46707311e+00
-9.43675545e+00
0.00000000e+00
0.00000000e+00
-3.29511728e+00
-1.00966435e+01
0.00000000e+00
0.00000000e+00
-3.48387536e+00
-9.47395523e+00
0.00000000e+00
0.00000000e+00
-3.27847675e+00
-9.45236869e+00
0.00000000e+00
0.00000000e+00
-3.56703172e+00
-1.01313079e+01
0.00000000e+00
0.00000000e+00
-3.36337112e+00
-1.01946126e+01
0.00000000e+00
0.00000000e+00
-3.62830081e+00
-9.96811255e+00
0.00000000e+00
0.00000000e+00
-3.20621558e+00
-9.61957872e+00
0.00000000e+00
0.00000000e+00
-3.29816549e+00
-9.46131889e+00
0.00000000e+00
0.00000000e+00
-3.60496235e+00
-9.68516591e+00
0.00000000e+00
0.00000000e+00
-3.35688802e+00
-9.50600161e+00
0.00000000e+00
0.00000000e+00
-3.48346446e+00
-9.58354320e+00
0.00000000e+00
SCALARS p double 1
LOOKUP_TABLE default
0.00000000e+00
0.00000000e+00
0.00000000e+00
0.00000000e+00
0.00000000e+00
0.00000000e+00
0.00000000e+00
0.00000000e+00
0.00000000e+00
0.00000000e+00
0.00000000e+00
0.00000000e+00
0.00000000e+00
0.00000000e+00
0.00000000e+00
0.00000000e+00
0.00000000e+00
0.00000000e+00
0.00000000e+00
0.00000000e+00
0.00000000e+00
0.00000000e+00
0.00000000e+00
0.00000000e+00
0.00000000e+00
0.00000000e+00
0.00000000e+00
0.00000000e+00
0.00000000e+00
0.00000000e+00
0.00000000e+00
0.00000000e+00
0.00000000e+00
0.00000000e+00
0.00000000e+00
0.00000000e+00
0.00000000e+00
0.00000000e+00
0.00000000e+00
0.00000000e+00
0.00000000e+00
0.00000000e+00
0.00000000e+00
0.00000000e+00
0.00000000e+00
0.00000000e+00
0.00000000e+00
0.00000000e+00
0.00000000e+00
0.00000000e+00
0.00000000e+00
0.00000000e+00
0.00000000e+00
0.00000000e+00
0.00000000e+00
0.00000000e+00
0.00000000e+00
0.00000000e+00
0.00000000e+00
0.00000000e+00
0.00000000e+00
0.00000000e+00
0.00000000e+00
0.00000000e+00
0.00000000e+00
0.00000000e+00
0.00000000e+00
0.00000000e+00
0.00000000e+00
0.00000000e+00
0.00000000e+00
0.00000000e+00
0.00000000e+00
0.00000000e+00
0.00000000e+00
0.00000000e+00
0.00000000e+00
0.00000000e+00
0.00000000e+00
0.00000000e+00
0.00000000e+00
0.00000000e+00
0.00000000e+00
0.00000000e+00
0.00000000e+00
0.00000000e+00
0.00000000e+00
0.00000000e+00
0.00000000e+00
0.00000000e+00
0.00000000e+00
0.00000000e+00
0.00000000e+00
0.00000000e+00
0.00000000e+00
0.00000000e+00
0.00000000e+00
0.00000000e+00
0.00000000e+00
0.00000000e+00
0.00000000e+00
0.00000000e+00
0.00000000e+00
0.00000000e+00
0.00000000e+00
0.00000000e+00
0.00000000e+00
0.00000000e+00
0.00000000e+00
0.00000000e+00
0.00000000e+00
0.00000000e+00
0.00000000e+00
0.00000000e+00
0.00000000e+00
0.00000000e+00
0.00000000e+00
0.00000000e+00
0.00000000e+00
0.00000000e+00
0.00000000e+00
0.00000000e+00
0.00000000e+00
0.00000000e+00
0.00000000e+00
0.00000000e+00
0.00000000e+00
0.00000000e+00
0.00000000e+00
0.00000000e+00
0.00000000e+00
0.00000000e+00
0.00000000e+00
0.00000000e+00
0.00000000e+00
0.00000000e+00
0.00000000e+00
0.00000000e+00
0.00000000e+00
0.00000000e+00
0.00000000e+00
0.00000000e+00
0.00000000e+00
0.00000000e+00
0.00000000e+00
0.00000000e+00
0.00000000e+00
0.00000000e+00
0.00000000e+00
0.00000000e+00
0.00000000e+00
0.00000000e+00
0.00000000e+00
0.00000000e+00
0.00000000e+00
0.00000000e+00
0.00000000e+00
0.00000000e+00
0.00000000e+00
0.00000000e+00
0.00000000e+00
0.00000000e+00
0.00000000e+00
0.00000000e+00
0.00000000e+00
0.00000000e+00
0.00000000e+00
0.00000000e+00
0.00000000e+00
0.00000000e+00
0.00000000e+00
0.00000000e+00
0.00000000e+00
0.00000000e+00
0.00000000e+00
0.00000000e+00
0.00000000e+00
0.00000000e+00
0.00000000e+00
0.00000000e+00
0.00000000e+00
0.00000000e+00
0.00000000e+00
0.00000000e+00
0.00000000e+00
0.00000000e+00
0.00000000e+00
0.00000000e+00
0.00000000e+00
0.00000000e+00
0.00000000e+00
0.00000000e+00
0.00000000e+00
0.00000000e+00
0.00000000e+00
0.00000000e+00
0.00000000e+00
0.00000000e+00
0.00000000e+00
0.00000000e+00
0.00000000e+00
0.00000000e+00
0.00000000e+00
0.00000000e+00
0.00000000e+00
0.00000000e+00
0.00000000e+00
0.00000000e+00
0.00000000e+00
0.00000000e+00
0.00000000e+00
0.00000000e+00
0.00000000e+00
0.00000000e+00
0.00000000e+00
0.00000000e+00
0.00000000e+00
0.00000000e+00
0.00000000e+00
0.00000000e+00
0.00000000e+00
0.00000000e+00
0.00000000e+00
0.00000000e+00
0.00000000e+00
0.00000000e+00
0.00000000e+00
0.00000000e+00
0.00000000e+00
0.00000000e+00
0.00000000e+00
0.00000000e+00
0.00000000e+00
0.00000000e+00
0.00000000e+00
0.00000000e+00
0.00000000e+00
0.00000000e+00
0.00000000e+00
0.00000000e+00
0.00000000e+00
0.00000000e+00
0.00000000e+00
0.00000000e+00
0.00000000e+00
0.00000000e+00
0.00000000e+00
0.00000000e+00
0.00000000e+00
0.00000000e+00
0.00000000e+00
0.00000000e+00
0.00000000e+00
0.00000000e+00
0.00000000e+00
0.00000000e+00
SCALARS tke double 1
LOOKUP_TABLE default
3.05422724e+00
6.99226789e+00
4.77414553e+01
2.94849588e-02
3.05422724e+00
6.60415770e+00
4.76422034e+01
5.06817471e-02
3.05422724e+00
6.70632170e+00
5.24169888e+01
1.61798543e-04
3.05422724e+00
6.67910670e+00
4.93746876e+01
6.65464040e-03
3.05422724e+00
6.88317543e+00
4.91167743e+01
1.12292905e-02
3.05422724e+00
6.98008198e+00
5.21240526e+01
5.85316821e-03
3.05422724e+00
6.79076061e+00
4.95211122e+01
3.88772684e-03
3.05422724e+00
6.90242033e+00
4.86484669e+01
1.72337723e-02
3.05422724e+00
6.99561941e+00
4.61581350e+01
9.53316110e-03
3.05422724e+00
6.38512357e+00
4.79150494e+01
3.07299494e-02
3.05422724e+00
6.25882775e+00
5.12676467e+01
4.00192834e-04
3.05422724e+00
7.13483677e+00
4.92378770e+01
7.64260066e-03
3.05422724e+00
7.24488773e+00
5.06946587e+01
5.42561726e-03
3.05422724e+00
6.61093083e+00
5.03052450e+01
3.49830372e-02
3.05422724e+00
6.58861041e+00
5.17572353e+01
3.74592989e-03
3.05422724e+00
5.91475172e+00
4.80553005e+01
1.70919753e-02
3.05422724e+00
6.41759596e+00
4.74474920e+01
6.36161293e-03
3.05422724e+00
6.62000809e+00
5.00259571e+01
7.04159615e-03
3.05422724e+00
6.39666702e+00
4.89678000e+01
4.28382766e-02
3.05422724e+00
6.11451963e+00
4.99209501e+01
1.22432463e-04
3.05422724e+00
6.73877830e+00
4.74022377e+01
2.22258193e-02
3.05422724e+00
5.90806559e+00
5.14644149e+01
3.46774934e-02
3.05422724e+00
6.72040302e+00
5.09794786e+01
1.22615412e-02
3.05422724e+00
5.83588077e+00
5.34104632e+01
5.64147526e-03
3.05422724e+00
6.07610419e+00
4.92466435e+01
4.93766875e-03
3.05422724e+00
6.28121554e+00
5.01989338e+01
1.12554431e-02
3.05422724e+00
6.25187833e+00
5.47027916e+01
7.66507976e-03
3.05422724e+00
6.65294218e+00
4.96671108e+01
2.09031281e-02
3.05422724e+00
6.05726580e+00
4.70946311e+01
3.66714450e-02
3.05422724e+00
6.85372019e+00
4.92192271e+01
1.65111686e-03
3.05422724e+00
5.94514622e+00
5.10650444e+01
6.55951458e-04
3.05422724e+00
6.48800062e+00
4.80897952e+01
2.03593354e-03
3.05422724e+00
6.60691040e+00
5.06717887e+01
3.10074727e-03
3.05422724e+00
6.15476781e+00
5.02209338e+01
2.25638733e-03
3.05422724e+00
6.21766898e+00
4.84567405e+01
6.11137357e-03
3.05422724e+00
6.36714537e+00
4.85212631e+01
1.11389209e-02
3.05422724e+00
6.96944096e+00
5.23279174e+01
9.35112700e-03
3.05422724e+00
6.38240416e+00
4.88969866e+01
2.80119749e-03
3.05422724e+00
7.36384184e+00
5.51991029e+01
9.80070097e-03
3.05422724e+00
6.46085463e+00
5.56095013e+01
1.50473127e-02
3.05422724e+00
6.54798392e+00
5.07744599e+01
2.57821661e-03
3.05422724e+00
6.52123639e+00
5.15712684e+01
8.43164064e-03
3.05422724e+00
7.03226283e+00
5.18226998e+01
2.65970798e-02
3.05422724e+00
6.25536733e+00
4.86705860e+01
4.61533111e-03
3.05422724e+00
6.12765225e+00
4.64815585e+01
1.13728909e-02
3.05422724e+00
6.58685479e+00
4.75659844e+01
3.66832638e-03
3.05422724e+00
5.15749621e+00
4.89005612e+01
1.70206730e-02
3.05422724e+00
6.99667674e+00
4.76062912e+01
4.47802095e-03
3.05422724e+00
7.45153991e+00
5.18271520e+01
2.63836154e-02
3.05422724e+00
6.78773328e+00
5.12441161e+01
2.20364904e-02
3.05422724e+00
5.41878893e+00
4.81816257e+01
1.70722396e-03
3.05422724e+00
6.22812835e+00
4.90805914e+01
2.14139916e-03
3.05422724e+00
6.01524425e+00
4.46134019e+01
1.21930885e-03
3.05422724e+00
5.43091175e+00
5.09720949e+01
1.30308429e-02
3.05422724e+00
6.07713896e+00
4.49071035e+01
2.63651148e-03
3.05422724e+00
5.41680127e+00
4.46929759e+01
2.46163887e-03
3.05422724e+00
6.36430557e+00
5.13280436e+01
4.87890790e-03
3.05422724e+00
5.66427016e+00
5.19672134e+01
5.31782918e-04
3.05422724e+00
6.62215386e+00
4.96827625e+01
4.09326352e-04
3.05422724e+00
5.15868314e+00
4.62836670e+01
7.86022848e-03
3.05422724e+00
5.46313932e+00
4.48466248e+01
6.39731529e-03
3.05422724e+00
6.49973011e+00
4.69052597e+01
3.77237640e-03
3.05422724e+00
5.64227005e+00
4.51941526e+01
1.76142485e-02
3.05422724e+00
6.10933499e+00
4.59244186e+01
1.74393759e-02
SCALARS wind_speed double 1
LOOKUP_TABLE default
0.00000000e+00
4.78758040e+00
1.01889913e+01
2.86012567e+00
0.00000000e+00
4.62314623e+00
1.02286486e+01
2.74473670e+00
0.00000000e+00
4.53804081e+00
1.06447090e+01
2.99017340e+00
0.00000000e+00
4.66105285e+00
1.04120863e+01
2.91266188e+00
0.00000000e+00
4.62402778e+00
1.03429766e+01
2.87631227e+00
0.00000000e+00
4.63317072e+00
1.06259531e+01
3.08359013e+00
0.00000000e+00
4.76255004e+00
1.04157593e+01
3.00978290e+00
0.00000000e+00
4.66861878e+00
1.02983941e+01
3.14522361e+00
0.00000000e+00
4.78828039e+00
1.00323927e+01
2.85314130e+00
0.00000000e+00
4.57552323e+00
1.02552886e+01
2.73745794e+00
0.00000000e+00
4.43833601e+00
1.05361827e+01
2.99025313e+00
0.00000000e+00
4.75782238e+00
1.03989384e+01
2.91300105e+00
0.00000000e+00
4.70160159e+00
1.04944240e+01
2.87429381e+00
0.00000000e+00
4.55279789e+00
1.04533853e+01
3.09302244e+00
0.00000000e+00
4.71991340e+00
1.06282777e+01
3.00973578e+00
0.00000000e+00
4.45204044e+00
1.02406342e+01
3.14517852e+00
0.00000000e+00
4.50897515e+00
1.01994483e+01
3.09066831e+00
0.00000000e+00
4.55976901e+00
1.04466795e+01
2.85923803e+00
0.00000000e+00
4.52099023e+00
1.03189807e+01
3.23020439e+00
0.00000000e+00
4.38455646e+00
1.03518250e+01
2.99132853e+00
0.00000000e+00
4.65542643e+00
1.01586297e+01
3.12451228e+00
0.00000000e+00
4.38870449e+00
1.05510033e+01
2.79766809e+00
0.00000000e+00
4.51665642e+00
1.05482670e+01
3.09527138e+00
0.00000000e+00
4.53118448e+00
1.07643790e+01
2.99061337e+00
0.00000000e+00
4.56057050e+00
1.03332458e+01
2.87899200e+00
0.00000000e+00
4.51780250e+00
1.04167689e+01
3.12763696e+00
0.00000000e+00
4.38446368e+00
1.08675014e+01
3.01154879e+00
0.00000000e+00
4.73605468e+00
1.03665908e+01
3.07311881e+00
0.00000000e+00
4.42141050e+00
1.01007881e+01
2.93665931e+00
0.00000000e+00
4.62036243e+00
1.03562537e+01
3.00141865e+00
0.00000000e+00
4.45356850e+00
1.04734356e+01
2.97694799e+00
0.00000000e+00
4.58533366e+00
1.02478674e+01
3.03065502e+00
0.00000000e+00
4.66776576e+00
1.04762320e+01
3.02995923e+00
0.00000000e+00
4.52109091e+00
1.04696975e+01
3.00949253e+00
0.00000000e+00
4.51586433e+00
1.02513337e+01
2.86773491e+00
0.00000000e+00
4.41580911e+00
1.02770684e+01
3.04070748e+00
0.00000000e+00
4.69509752e+00
1.06835673e+01
2.85683743e+00
0.00000000e+00
4.47581761e+00
1.03145961e+01
2.94730588e+00
0.00000000e+00
4.62042128e+00
1.09604929e+01
3.01811678e+00
0.00000000e+00
4.63630125e+00
1.08940040e+01
2.87207949e+00
0.00000000e+00
4.64291343e+00
1.04412499e+01
2.91396202e+00
0.00000000e+00
4.46492731e+00
1.05811281e+01
2.85230957e+00
0.00000000e+00
4.64280124e+00
1.06235860e+01
3.03935883e+00
0.00000000e+00
4.41081177e+00
1.02690288e+01
3.05179605e+00
0.00000000e+00
4.35039321e+00
1.00450359e+01
3.12386973e+00
0.00000000e+00
4.45086740e+00
1.01508395e+01
3.05409622e+00
0.00000000e+00
4.09697326e+00
1.02474345e+01
2.80256944e+00
0.00000000e+00
4.47979386e+00
1.01112798e+01
3.05486526e+00
0.00000000e+00
4.74544066e+00
1.05643536e+01
3.08122668e+00
0.00000000e+00
4.68660505e+00
1.05376051e+01
3.00907540e+00
0.00000000e+00
4.21990138e+00
1.02374872e+01
2.96042309e+00
0.00000000e+00
4.42839430e+00
1.02779519e+01
3.04275282e+00
0.00000000e+00
4.38741381e+00
9.76124961e+00
3.02300507e+00
0.00000000e+00
4.34991208e+00
1.04972688e+01
3.01884678e+00
0.00000000e+00
4.38473877e+00
9.87344784e+00
2.94567750e+00
0.00000000e+00
4.12184196e+00
9.89378374e+00
2.95150310e+00
0.00000000e+00
4.51051420e+00
1.05170029e+01
3.07423949e+00
0.00000000e+00
4.44042122e+00
1.06060038e+01
3.00192028e+00
0.00000000e+00
4.49603131e+00
1.03830832e+01
2.95998464e+00
0.00000000e+00
4.17992651e+00
1.00021221e+01
3.04463173e+00
0.00000000e+00
4.25971714e+00
9.78511317e+00
3.02471745e+00
0.00000000e+00
4.58904912e+00
1.01024246e+01
3.01577833e+00
0.00000000e+00
4.28441317e+00
9.90247799e+00
2.95075777e+00
0.00000000e+00
4.28656606e+00
1.00174768e+01
2.95657336e+00
