# vtk DataFile Version 3.0
Meteo Turbulence Simulation Result
ASCII
DATASET RECTILINEAR_GRID
DIMENSIONS 9 9 5
X_COORDINATES 9 double
0.000000 62.500000 125.000000 187.500000 250.000000 312.500000 375.000000 437.500000 500.000000
Y_COORDINATES 9 double
0.000000 62.500000 125.000000 187.500000 250.000000 312.500000 375.000000 437.500000 500.000000
Z_COORDINATES 5 double
0.000000 34.944042 64.421112 85.922619 100.000000
CELL_DATA 256
SCALARS u double 1
LOOKUP_TABLE default
0.00000000e+00
3.60233173e-02
-4.59117355e-03
-2.09133168e-02
0.00000000e+00
1.26797197e-02
2.49361673e-02
-4.03502457e-02
0.00000000e+00
-1.69740713e-02
-3.41414562e-04
1.85693044e-03
0.00000000e+00
1.83291047e-02
3.39413324e-02
-1.11067078e-02
0.00000000e+00
-3.97939323e-03
7.65708369e-03
-1.73490309e-02
0.00000000e+00
-7.28087283e-03
4.88642533e-03
1.75945866e-02
0.00000000e+00
4.05545927e-02
2.75696280e-02
5.25236575e-03
0.00000000e+00
7.44565036e-03
7.54516238e-03
2.78226899e-02
0.00000000e+00
3.60233173e-02
-4.59117355e-03
-2.09133168e-02
0.00000000e+00
1.26797197e-02
2.49361673e-02
-4.03502457e-02
0.00000000e+00
-1.69740713e-02
-3.41414562e-04
1.85693044e-03
0.00000000e+00
1.83291047e-02
3.39413324e-02
-1.11067078e-02
0.00000000e+00
-3.97939323e-03
7.65708369e-03
-1.73490309e-02
0.00000000e+00
-7.28087283e-03
4.88642533e-03
1.75945866e-02
0.00000000e+00
4.05545927e-02
2.75696280e-02
5.25236575e-03
0.00000000e+00
7.44565036e-03
7.54516238e-03
2.78226899e-02
0.00000000e+00
-7.86983718e-03
1.84218646e-02
1.92972393e-02
0.00000000e+00
-6.13231281e-03
1.71878057e-02
-1.96537643e-02
0.00000000e+00
-3.04022602e-03
1.30508373e-03
4.15776213e-02
0.00000000e+00
-2.27114772e-02
-3.41550384e-02
2.52331227e-03
0.00000000e+00
1.33160779e-02
-3.24640243e-03
2.40231774e-02
0.00000000e+00
-9.00733972e-03
-2.48923438e-03
-3.11187762e-02
0.00000000e+00
-2.39476199e-02
2.33993936e-02
1.92146474e-02
0.00000000e+00
3.32901670e-02
1.62592793e-02
1.88282654e-03
0.00000000e+00
2.73219615e-02
-5.95853160e-03
-1.69050626e-02
0.00000000e+00
3.17326668e-03
-1.13782259e-02
2.50784778e-02
0.00000000e+00
-3.08386824e-02
5.95543513e-03
5.29419258e-03
0.00000000e+00
4.14127758e-02
-1.04525953e-02
1.50888211e-02
0.00000000e+00
-9.14192707e-03
-1.89035332e-02
-8.87138134e-03
0.00000000e+00
-3.30911563e-03
9.20854452e-03
3.93064247e-03
0.00000000e+00
6.11559794e-03
-2.68815033e-02
-1.96540371e-04
0.00000000e+00
9.05024273e-03
9.89058651e-03
8.82847888e-03
0.00000000e+00
2.50476809e-02
-2.57745913e-03
8.76632590e-03
0.00000000e+00
1.16447903e-02
1.97887628e-02
5.21676250e-03
0.00000000e+00
6.47093496e-03
-8.85413957e-03
-1.84110051e-02
0.00000000e+00
-2.96410148e-02
2.31080041e-03
9.90581418e-03
0.00000000e+00
1.04936446e-02
2.89882508e-02
-2.02885021e-02
0.00000000e+00
-1.44087776e-02
3.24755029e-03
-5.34666666e-03
0.00000000e+00
-3.40671270e-02
3.61847302e-02
6.25072366e-03
0.00000000e+00
2.48438373e-02
-2.94563006e-02
-1.82044047e-02
0.00000000e+00
2.18602913e-02
-2.98503482e-02
-1.07299073e-02
0.00000000e+00
-2.56268653e-02
9.50620774e-03
-2.11074870e-02
0.00000000e+00
-7.94569668e-03
2.09743056e-02
8.87338386e-03
0.00000000e+00
-2.42079496e-02
-1.10214501e-02
1.23198127e-02
0.00000000e+00
-3.27185289e-02
-1.64063630e-02
2.45626913e-02
0.00000000e+00
-3.36242147e-02
-1.71510076e-02
1.29050660e-02
0.00000000e+00
-3.85106097e-02
-3.70616035e-02
-2.93767870e-02
0.00000000e+00
-5.04375858e-02
-4.26414619e-02
1.27193309e-02
0.00000000e+00
-4.01748736e-03
-1.58518929e-02
1.63329420e-02
0.00000000e+00
1.94408203e-02
1.72601876e-03
4.18304436e-03
0.00000000e+00
-2.32558483e-02
-1.38693453e-03
-2.98548658e-03
0.00000000e+00
-1.79119071e-02
-2.95666894e-02
1.08423626e-02
0.00000000e+00
-1.58482808e-02
-7.07958658e-02
7.56800292e-03
0.00000000e+00
9.43107412e-03
-7.45068010e-03
6.21286144e-03
0.00000000e+00
-2.02507397e-02
-2.36908903e-02
-5.37380058e-03
0.00000000e+00
-4.79018073e-02
2.86314406e-04
-4.56778496e-03
0.00000000e+00
-4.01748736e-03
-1.58518929e-02
1.63329420e-02
0.00000000e+00
1.94408203e-02
1.72601876e-03
4.18304436e-03
0.00000000e+00
-2.32558483e-02
-1.38693453e-03
-2.98548658e-03
0.00000000e+00
-1.79119071e-02
-2.95666894e-02
1.08423626e-02
0.00000000e+00
-1.58482808e-02
-7.07958658e-02
7.56800292e-03
0.00000000e+00
9.43107412e-03
-7.45068010e-03
6.21286144e-03
0.00000000e+00
-2.02507397e-02
-2.36908903e-02
-5.37380058e-03
0.00000000e+00
-4.79018073e-02
2.86314406e-04
-4.56778496e-03
SCALARS v double 1
LOOKUP_TABLE default
0.00000000e+00
6.43071159e+00
6.77861159e+00
6.97438262e+00
0.00000000e+00
6.43071159e+00
6.77861159e+00
6.97438262e+00
0.00000000e+00
6.43545018e+00
6.77193397e+00
6.93748563e+00
0.00000000e+00
6.40564089e+00
6.76715317e+00
6.95513496e+00
0.00000000e+00
6.44091903e+00
6.80698572e+00
6.95763965e+00
0.00000000e+00
6.37505317e+00
6.72835057e+00
6.94361920e+00
0.00000000e+00
6.41050544e+00
6.74519600e+00
6.95326671e+00
0.00000000e+00
6.41050544e+00
6.74519600e+00
6.95326671e+00
0.00000000e+00
6.44397886e+00
6.77421541e+00
6.94918071e+00
0.00000000e+00
6.44397886e+00
6.77421541e+00
6.94918071e+00
0.00000000e+00
6.47175859e+00
6.74868457e+00
6.93530373e+00
0.00000000e+00
6.42210966e+00
6.78494741e+00
6.92201302e+00
0.00000000e+00
6.44223684e+00
6.77675545e+00
6.94116096e+00
0.00000000e+00
6.43825741e+00
6.75557533e+00
6.98013604e+00
0.00000000e+00
6.40803144e+00
6.75796251e+00
6.92614181e+00
0.00000000e+00
6.40803144e+00
6.75796251e+00
6.92614181e+00
0.00000000e+00
6.46586135e+00
6.77414653e+00
6.93912996e+00
0.00000000e+00
6.46586135e+00
6.77414653e+00
6.93912996e+00
0.00000000e+00
6.43363012e+00
6.74850521e+00
6.91362823e+00
0.00000000e+00
6.42996975e+00
6.77424347e+00
6.93808238e+00
0.00000000e+00
6.41941209e+00
6.76626043e+00
6.91348348e+00
0.00000000e+00
6.41587565e+00
6.77407481e+00
6.97043650e+00
0.00000000e+00
6.46590445e+00
6.76098228e+00
6.92201072e+00
0.00000000e+00
6.46590445e+00
6.76098228e+00
6.92201072e+00
0.00000000e+00
6.45406237e+00
6.73427362e+00
6.93789797e+00
0.00000000e+00
6.45406237e+00
6.73427362e+00
6.93789797e+00
0.00000000e+00
6.40801195e+00
6.78079418e+00
6.95964641e+00
0.00000000e+00
6.35469134e+00
6.77696412e+00
6.90882371e+00
0.00000000e+00
6.41870554e+00
6.76131063e+00
6.98389587e+00
0.00000000e+00
6.43505532e+00
6.75389541e+00
6.94848192e+00
0.00000000e+00
6.41204975e+00
6.75554286e+00
6.94566980e+00
0.00000000e+00
6.41204975e+00
6.75554286e+00
6.94566980e+00
0.00000000e+00
6.40645624e+00
6.78407918e+00
6.92947712e+00
0.00000000e+00
6.40645624e+00
6.78407918e+00
6.92947712e+00
0.00000000e+00
6.43014035e+00
6.75530480e+00
6.94096277e+00
0.00000000e+00
6.43625034e+00
6.76459566e+00
6.91667590e+00
0.00000000e+00
6.36681773e+00
6.77298957e+00
6.94971838e+00
0.00000000e+00
6.47804317e+00
6.76619562e+00
6.92816380e+00
0.00000000e+00
6.45830567e+00
6.78114881e+00
6.91682761e+00
0.00000000e+00
6.45830567e+00
6.78114881e+00
6.91682761e+00
0.00000000e+00
6.43109491e+00
6.72918295e+00
6.93408795e+00
0.00000000e+00
6.43109491e+00
6.72918295e+00
6.93408795e+00
0.00000000e+00
6.40561530e+00
6.78793193e+00
6.90186872e+00
0.00000000e+00
6.39049249e+00
6.75361820e+00
6.94978072e+00
0.00000000e+00
6.42989224e+00
6.77770907e+00
6.93303684e+00
0.00000000e+00
6.45021749e+00
6.74455154e+00
6.93286601e+00
0.00000000e+00
6.41781321e+00
6.77688289e+00
6.93019007e+00
0.00000000e+00
6.41781321e+00
6.77688289e+00
6.93019007e+00
0.00000000e+00
6.39761699e+00
6.75583357e+00
6.97464944e+00
0.00000000e+00
6.39761699e+00
6.75583357e+00
6.97464944e+00
0.00000000e+00
6.40579889e+00
6.73434992e+00
6.93047995e+00
0.00000000e+00
6.35844316e+00
6.73504162e+00
6.94090209e+00
0.00000000e+00
6.42216611e+00
6.76595581e+00
6.93613463e+00
0.00000000e+00
6.42811108e+00
6.76778732e+00
6.96583543e+00
0.00000000e+00
6.41709444e+00
6.73181704e+00
6.95051776e+00
0.00000000e+00
6.41709444e+00
6.73181704e+00
6.95051776e+00
0.00000000e+00
6.41106527e+00
6.75408785e+00
6.94315163e+00
0.00000000e+00
6.41106527e+00
6.75408785e+00
6.94315163e+00
0.00000000e+00
6.38141090e+00
6.75716867e+00
6.93582015e+00
0.00000000e+00
6.39488184e+00
6.76020036e+00
6.95745154e+00
0.00000000e+00
6.45491197e+00
6.77298964e+00
6.95698370e+00
0.00000000e+00
6.42811495e+00
6.75155340e+00
6.95271382e+00
0.00000000e+00
6.42244450e+00
6.75407924e+00
6.90861940e+00
0.00000000e+00
6.42244450e+00
6.75407924e+00
6.90861940e+00
SCALARS w double 1
LOOKUP_TABLE default
0.00000000e+00
-2.35396507e-02
3.99928760e-02
0.00000000e+00
0.00000000e+00
-6.73242406e-03
4.19202252e-02
0.00000000e+00
0.00000000e+00
-1.08798925e-02
-3.96569389e-02
0.00000000e+00
0.00000000e+00
-9.80520162e-03
1.17471151e-02
0.00000000e+00
0.00000000e+00
-1.93299025e-02
1.67081180e-02
0.00000000e+00
0.00000000e+00
-2.19011796e-02
-3.44292813e-02
0.00000000e+00
0.00000000e+00
-1.39671576e-02
8.95468546e-03
0.00000000e+00
0.00000000e+00
-2.01790818e-02
2.44025157e-02
0.00000000e+00
0.00000000e+00
-2.34996304e-02
6.90317457e-02
0.00000000e+00
0.00000000e+00
3.92472386e-03
3.71426827e-02
0.00000000e+00
0.00000000e+00
1.21362756e-02
-2.03652190e-02
0.00000000e+00
0.00000000e+00
-3.04702897e-02
1.43794049e-02
0.00000000e+00
0.00000000e+00
-3.53870450e-02
-1.12900667e-02
0.00000000e+00
0.00000000e+00
-6.95285364e-03
-3.83684592e-03
0.00000000e+00
0.00000000e+00
-4.49335230e-03
-2.90125301e-02
0.00000000e+00
0.00000000e+00
2.69466035e-02
3.47513941e-02
0.00000000e+00
0.00000000e+00
3.73763876e-03
4.63454769e-02
0.00000000e+00
0.00000000e+00
-5.88317715e-03
2.99517076e-04
0.00000000e+00
0.00000000e+00
2.97865604e-03
1.93848363e-02
0.00000000e+00
0.00000000e+00
1.73085222e-02
2.47472148e-03
0.00000000e+00
0.00000000e+00
-1.26385732e-02
4.68727477e-02
0.00000000e+00
0.00000000e+00
2.71021633e-02
-2.41761833e-02
0.00000000e+00
0.00000000e+00
-9.90037431e-03
-1.54738466e-02
0.00000000e+00
0.00000000e+00
3.34294461e-02
-5.62374218e-02
0.00000000e+00
0.00000000e+00
1.99495321e-02
1.41312188e-02
0.00000000e+00
0.00000000e+00
9.39319505e-03
-2.24787902e-03
0.00000000e+00
0.00000000e+00
1.14294273e-02
-7.75082318e-02
0.00000000e+00
0.00000000e+00
-3.79856425e-03
5.98697696e-03
0.00000000e+00
0.00000000e+00
1.92973065e-02
5.15898762e-02
0.00000000e+00
0.00000000e+00
-1.79679499e-02
1.47392546e-02
0.00000000e+00
0.00000000e+00
2.51584582e-02
-1.71432815e-02
0.00000000e+00
0.00000000e+00
-1.22420797e-03
3.44051713e-02
0.00000000e+00
0.00000000e+00
-6.26666454e-03
-1.07876507e-02
0.00000000e+00
0.00000000e+00
1.50632176e-02
-2.90242714e-03
0.00000000e+00
0.00000000e+00
1.17992106e-02
2.78760643e-02
0.00000000e+00
0.00000000e+00
5.33652235e-03
2.65613236e-02
0.00000000e+00
0.00000000e+00
-2.07480482e-02
-3.85334960e-02
0.00000000e+00
0.00000000e+00
6.28628055e-03
1.91754026e-02
0.00000000e+00
0.00000000e+00
-3.87285786e-02
-8.52698813e-02
0.00000000e+00
0.00000000e+00
1.78269741e-03
-9.23539609e-02
0.00000000e+00
0.00000000e+00
-3.63131256e-03
-1.13843418e-02
0.00000000e+00
0.00000000e+00
-2.16911089e-03
-2.52496641e-02
0.00000000e+00
0.00000000e+00
-2.57821937e-02
-3.00388176e-02
0.00000000e+00
0.00000000e+00
1.09492597e-02
2.38501630e-02
0.00000000e+00
0.00000000e+00
1.68320698e-02
6.31092426e-02
0.00000000e+00
0.00000000e+00
-4.28408899e-03
4.41587002e-02
0.00000000e+00
0.00000000e+00
6.73905812e-02
2.00235816e-02
0.00000000e+00
0.00000000e+00
-2.21412708e-02
4.28612505e-02
0.00000000e+00
0.00000000e+00
-4.43339386e-02
-3.02528324e-02
0.00000000e+00
0.00000000e+00
-1.45195367e-02
-2.03547147e-02
0.00000000e+00
0.00000000e+00
5.26820570e-02
3.26870792e-02
0.00000000e+00
0.00000000e+00
1.50925483e-02
1.70116181e-02
0.00000000e+00
0.00000000e+00
2.14564018e-02
9.80199841e-02
0.00000000e+00
0.00000000e+00
5.17048420e-02
-1.53601427e-02
0.00000000e+00
0.00000000e+00
1.86190133e-02
9.12061359e-02
0.00000000e+00
0.00000000e+00
5.38514270e-02
9.53253109e-02
0.00000000e+00
0.00000000e+00
4.90318289e-03
-2.15670954e-02
0.00000000e+00
0.00000000e+00
4.02000252e-02
-3.24476808e-02
0.00000000e+00
0.00000000e+00
-5.58164689e-03
5.73254037e-03
0.00000000e+00
0.00000000e+00
6.66045834e-02
6.67990354e-02
0.00000000e+00
0.00000000e+00
5.07936066e-02
9.39775180e-02
0.00000000e+00
0.00000000e+00
-1.72337452e-03
5.64608899e-02
0.00000000e+00
0.00000000e+00
4.02891320e-02
8.58778129e-02
0.00000000e+00
0.00000000e+00
1.86729068e-02
7.21038127e-02
0.00000000e+00
SCALARS p double 1
LOOKUP_TABLE default
0.00000000e+00
0.00000000e+00
0.00000000e+00
0.00000000e+00
0.00000000e+00
0.00000000e+00
0.00000000e+00
0.00000000e+00
0.00000000e+00
0.00000000e+00
0.00000000e+00
0.00000000e+00
0.00000000e+00
0.00000000e+00
0.00000000e+00
0.00000000e+00
0.00000000e+00
0.00000000e+00
0.00000000e+00
0.00000000e+00
0.00000000e+00
0.00000000e+00
0.00000000e+00
0.00000000e+00
0.00000000e+00
0.00000000e+00
0.00000000e+00
0.00000000e+00
0.00000000e+00
0.00000000e+00
0.00000000e+00
0.00000000e+00
0.00000000e+00
0.00000000e+00
0.00000000e+00
0.00000000e+00
0.00000000e+00
0.00000000e+00
0.00000000e+00
0.00000000e+00
0.00000000e+00
0.00000000e+00
0.00000000e+00
0.00000000e+00
0.00000000e+00
0.00000000e+00
0.00000000e+00
0.00000000e+00
0.00000000e+00
0.00000000e+00
0.00000000e+00
0.00000000e+00
0.00000000e+00
0.00000000e+00
0.00000000e+00
0.00000000e+00
0.00000000e+00
0.00000000e+00
0.00000000e+00
0.00000000e+00
0.00000000e+00
0.00000000e+00
0.00000000e+00
0.00000000e+00
0.00000000e+00
0.00000000e+00
0.00000000e+00
0.00000000e+00
0.00000000e+00
0.00000000e+00
0.00000000e+00
0.00000000e+00
0.00000000e+00
0.00000000e+00
0.00000000e+00
0.00000000e+00
0.00000000e+00
0.00000000e+00
0.00000000e+00
0.00000000e+00
0.00000000e+00
0.00000000e+00
0.00000000e+00
0.00000000e+00
0.00000000e+00
0.00000000e+00
0.00000000e+00
0.00000000e+00
0.00000000e+00
0.00000000e+00
0.00000000e+00
0.00000000e+00
0.00000000e+00
0.00000000e+00
0.00000000e+00
0.00000000e+00
0.00000000e+00
0.00000000e+00
0.00000000e+00
0.00000000e+00
0.00000000e+00
0.00000000e+00
0.00000000e+00
0.00000000e+00
0.00000000e+00
0.00000000e+00
0.00000000e+00
0.00000000e+00
0.00000000e+00
0.00000000e+00
0.00000000e+00
0.00000000e+00
0.00000000e+00
0.00000000e+00
0.00000000e+00
0.00000000e+00
0.00000000e+00
0.00000000e+00
0.00000000e+00
0.00000000e+00
0.00000000e+00
0.00000000e+00
0.00000000e+00
0.00000000e+00
0.00000000e+00
0.00000000e+00
0.00000000e+00
0.00000000e+00
0.00000000e+00
0.00000000e+00
0.00000000e+00
0.00000000e+00
0.00000000e+00
0.00000000e+00
0.00000000e+00
0.00000000e+00
0.00000000e+00
0.00000000e+00
0.00000000e+00
0.00000000e+00
0.00000000e+00
0.00000000e+00
0.00000000e+00
0.00000000e+00
0.00000000e+00
0.00000000e+00
0.00000000e+00
0.00000000e+00
0.00000000e+00
0.00000000e+00
0.00000000e+00
0.00000000e+00
0.00000000e+00
0.00000000e+00
0.00000000e+00
0.00000000e+00
0.00000000e+00
0.00000000e+00
0.00000000e+00
0.00000000e+00
0.00000000e+00
0.00000000e+00
0.00000000e+00
0.00000000e+00
0.00000000e+00
0.00000000e+00
0.00000000e+00
0.00000000e+00
0.00000000e+00
0.00000000e+00
0.00000000e+00
0.00000000e+00
0.00000000e+00
0.00000000e+00
0.00000000e+00
0.00000000e+00
0.00000000e+00
0.00000000e+00
0.00000000e+00
0.00000000e+00
0.00000000e+00
0.00000000e+00
0.00000000e+00
0.00000000e+00
0.00000000e+00
0.00000000e+00
0.00000000e+00
0.00000000e+00
0.00000000e+00
0.00000000e+00
0.00000000e+00
0.00000000e+00
0.00000000e+00
0.00000000e+00
0.00000000e+00
0.00000000e+00
0.00000000e+00
0.00000000e+00
0.00000000e+00
0.00000000e+00
0.00000000e+00
0.00000000e+00
0.00000000e+00
0.00000000e+00
0.00000000e+00
0.00000000e+00
0.00000000e+00
0.00000000e+00
0.00000000e+00
0.00000000e+00
0.00000000e+00
0.00000000e+00
0.00000000e+00
0.00000000e+00
0.00000000e+00
0.00000000e+00
0.00000000e+00
0.00000000e+00
0.00000000e+00
0.00000000e+00
0.00000000e+00
0.00000000e+00
0.00000000e+00
0.00000000e+00
0.00000000e+00
0.00000000e+00
0.00000000e+00
0.00000000e+00
0.00000000e+00
0.00000000e+00
0.00000000e+00
0.00000000e+00
0.00000000e+00
0.00000000e+00
0.00000000e+00
0.00000000e+00
0.00000000e+00
0.00000000e+00
0.00000000e+00
0.00000000e+00
0.00000000e+00
0.00000000e+00
0.00000000e+00
0.00000000e+00
0.00000000e+00
0.00000000e+00
0.00000000e+00
0.00000000e+00
0.00000000e+00
0.00000000e+00
0.00000000e+00
0.00000000e+00
0.00000000e+00
0.00000000e+00
0.00000000e+00
0.00000000e+00
SCALARS tke double 1
LOOKUP_TABLE default
1.54912689e+01
9.41692921e-04
8.96936876e-04
8.09265337e-04
1.54912689e+01
1.18846062e-04
1.27624123e-03
1.40465309e-03
1.54912689e+01
2.56902032e-04
8.07449463e-04
4.92182980e-06
1.54912689e+01
4.05202005e-04
6.46463671e-04
1.75992788e-04
1.54912689e+01
3.20003899e-04
1.03172074e-03
3.05816424e-04
1.54912689e+01
1.51822780e-03
1.29261676e-03
1.61281498e-04
1.54912689e+01
1.02624725e-03
6.25141999e-04
1.01603569e-04
1.54912689e+01
3.37685533e-04
5.31212733e-04
4.74860934e-04
1.54912689e+01
1.10333194e-03
2.43169233e-03
2.60692665e-04
1.54912689e+01
2.66465303e-04
1.03915759e-03
8.56080417e-04
1.54912689e+01
1.30663712e-03
3.47881794e-04
1.28200269e-05
1.54912689e+01
6.36641462e-04
8.69566839e-04
2.23707121e-04
1.54912689e+01
7.81029493e-04
1.57013815e-04
1.51151557e-04
1.54912689e+01
1.37354031e-04
6.80023270e-05
9.59651620e-04
1.54912689e+01
9.77946616e-04
8.28897865e-04
1.10020120e-04
1.54912689e+01
5.36292588e-04
6.60286654e-04
4.83277485e-04
1.54912689e+01
8.69063774e-04
1.28149434e-03
1.86582974e-04
1.54912689e+01
8.67220151e-04
1.85615360e-04
1.93526477e-04
1.54912689e+01
4.55161382e-05
3.32212069e-04
1.21246826e-03
1.54912689e+01
4.19599264e-04
6.25053848e-04
5.05019688e-06
1.54912689e+01
1.84650625e-04
1.10412944e-03
6.40505425e-04
1.54912689e+01
4.50290872e-04
3.32580746e-04
9.46936623e-04
1.54912689e+01
1.16862272e-03
4.03442737e-04
3.46670338e-04
1.54912689e+01
1.94575131e-03
1.72346285e-03
1.63841518e-04
1.54912689e+01
9.91907509e-04
6.03418473e-04
1.45130531e-04
1.54912689e+01
4.68821672e-04
5.53079245e-04
3.16704986e-04
1.54912689e+01
6.86674787e-04
3.13929863e-03
2.06719228e-04
1.54912689e+01
3.34277791e-03
1.38897901e-04
6.00270721e-04
1.54912689e+01
2.48367366e-04
1.51797506e-03
1.00213573e-03
1.54912689e+01
2.16542778e-04
2.17715508e-04
4.35731419e-05
1.54912689e+01
4.20211108e-04
5.57277683e-04
1.60102203e-05
1.54912689e+01
1.26739618e-04
6.89793780e-04
5.49619260e-05
1.54912689e+01
5.06955523e-04
2.35128739e-04
9.39429462e-05
1.54912689e+01
3.54877656e-04
3.73629994e-04
6.91260168e-05
1.54912689e+01
1.03295229e-04
4.79145011e-04
1.69932113e-04
1.54912689e+01
5.15799747e-04
3.55782361e-04
3.21409000e-04
1.54912689e+01
1.96818503e-03
1.19103642e-03
2.52893832e-04
1.54912689e+01
1.52553221e-03
1.89403202e-04
8.45136199e-05
1.54912689e+01
1.88184379e-03
4.41345188e-03
2.88352881e-04
1.54912689e+01
8.61804950e-04
4.82177207e-03
4.34517283e-04
1.54912689e+01
2.63552987e-04
1.16778345e-03
7.51277622e-05
1.54912689e+01
3.48744238e-04
1.02141695e-03
2.40325311e-04
1.54912689e+01
5.53578885e-04
9.23961817e-04
7.66920664e-04
1.54912689e+01
9.51483334e-04
4.15085356e-04
1.23577932e-04
1.54912689e+01
6.88436408e-04
2.20117898e-03
3.26007124e-04
1.54912689e+01
8.90141323e-04
1.34033776e-03
1.08821161e-04
1.54912689e+01
3.03876169e-03
9.52668225e-04
4.79758008e-04
1.54912689e+01
1.54357591e-03
1.89310562e-03
1.29150890e-04
1.54912689e+01
1.36822926e-03
6.29445888e-04
7.33170297e-04
1.54912689e+01
6.71791323e-04
2.54834477e-04
6.08536729e-04
1.54912689e+01
1.84420910e-03
1.01862954e-03
4.99108920e-05
1.54912689e+01
2.49527692e-03
1.04396832e-03
5.91722792e-05
1.54912689e+01
3.60050030e-04
7.31011653e-03
3.61642464e-05
1.54912689e+01
1.38572843e-03
1.48467050e-04
3.52658809e-04
1.54912689e+01
4.10352397e-04
5.00532137e-03
6.95975711e-05
1.54912689e+01
2.62925200e-03
5.10891105e-03
6.55910345e-05
1.54912689e+01
1.18450937e-04
4.22701062e-04
1.38303119e-04
1.54912689e+01
1.09535399e-03
5.92405570e-04
1.36695517e-05
1.54912689e+01
1.23996954e-03
5.16398569e-05
1.32530551e-05
1.54912689e+01
2.83479966e-03
2.68190212e-03
2.10802665e-04
1.54912689e+01
1.86022486e-03
6.95037666e-03
1.72613336e-04
1.54912689e+01
5.05297891e-05
1.71815757e-03
9.99355885e-05
1.54912689e+01
1.02015524e-03
4.03271634e-03
5.07266508e-04
1.54912689e+01
1.32513223e-03
2.66410872e-03
5.03259971e-04
SCALARS wind_speed double 1
LOOKUP_TABLE default
0.00000000e+00
6.43085557e+00
6.77873112e+00
6.97441397e+00
0.00000000e+00
6.43072762e+00
6.77878707e+00
6.97449934e+00
0.00000000e+00
6.43548176e+00
6.77205010e+00
6.93748587e+00
0.00000000e+00
6.40567462e+00
6.76724848e+00
6.95514382e+00
0.00000000e+00
6.44094926e+00
6.80701053e+00
6.95766128e+00
0.00000000e+00
6.37509494e+00
6.72844043e+00
6.94364150e+00
0.00000000e+00
6.41064893e+00
6.74525829e+00
6.95326870e+00
0.00000000e+00
6.41054152e+00
6.74524436e+00
6.95332238e+00
0.00000000e+00
6.44412239e+00
6.77456868e+00
6.94921218e+00
0.00000000e+00
6.44399253e+00
6.77436313e+00
6.94929786e+00
0.00000000e+00
6.47179223e+00
6.74871530e+00
6.93530398e+00
0.00000000e+00
6.42220810e+00
6.78504754e+00
6.92202193e+00
0.00000000e+00
6.44233526e+00
6.77676918e+00
6.94118264e+00
0.00000000e+00
6.43826528e+00
6.75557819e+00
6.98015821e+00
0.00000000e+00
6.40816134e+00
6.75808102e+00
6.92614380e+00
0.00000000e+00
6.40809242e+00
6.75805607e+00
6.92619769e+00
0.00000000e+00
6.46586722e+00
6.77433011e+00
6.93915679e+00
0.00000000e+00
6.46586694e+00
6.77416834e+00
6.93915779e+00
0.00000000e+00
6.43363153e+00
6.74853318e+00
6.91375325e+00
0.00000000e+00
6.43003316e+00
6.77433002e+00
6.93808284e+00
0.00000000e+00
6.41943834e+00
6.76642356e+00
6.91352522e+00
0.00000000e+00
6.41593922e+00
6.77411841e+00
6.97050596e+00
0.00000000e+00
6.46595638e+00
6.76104048e+00
6.92203739e+00
0.00000000e+00
6.46607657e+00
6.76123572e+00
6.92201097e+00
0.00000000e+00
6.45415104e+00
6.73429108e+00
6.93791856e+00
0.00000000e+00
6.45406999e+00
6.73428361e+00
6.93794329e+00
0.00000000e+00
6.40809634e+00
6.78123976e+00
6.95964843e+00
0.00000000e+00
6.35482742e+00
6.77697483e+00
6.90884018e+00
0.00000000e+00
6.41874106e+00
6.76153387e+00
6.98390150e+00
0.00000000e+00
6.43508126e+00
6.75391777e+00
6.94848303e+00
0.00000000e+00
6.41210202e+00
6.75561810e+00
6.94566980e+00
0.00000000e+00
6.41205626e+00
6.75563771e+00
6.94567541e+00
0.00000000e+00
6.40650827e+00
6.78408825e+00
6.92948267e+00
0.00000000e+00
6.40648453e+00
6.78410866e+00
6.92947909e+00
0.00000000e+00
6.43015443e+00
6.75536812e+00
6.94098719e+00
0.00000000e+00
6.43632080e+00
6.76464820e+00
6.91668299e+00
0.00000000e+00
6.36686018e+00
6.77316122e+00
6.94974800e+00
0.00000000e+00
6.47806224e+00
6.76622357e+00
6.92816586e+00
0.00000000e+00
6.45851164e+00
6.78178144e+00
6.91683044e+00
0.00000000e+00
6.45835370e+00
6.78184164e+00
6.91685157e+00
0.00000000e+00
6.43113309e+00
6.72925879e+00
6.93409625e+00
0.00000000e+00
6.43114634e+00
6.72923704e+00
6.93412008e+00
0.00000000e+00
6.40567211e+00
6.78803080e+00
6.90187443e+00
0.00000000e+00
6.39054772e+00
6.75366931e+00
6.94979164e+00
0.00000000e+00
6.42999752e+00
6.77802273e+00
6.93308035e+00
0.00000000e+00
6.45030655e+00
6.74471790e+00
6.93287802e+00
0.00000000e+00
6.41828256e+00
6.77701381e+00
6.93025234e+00
0.00000000e+00
6.41804960e+00
6.77715257e+00
6.93020174e+00
0.00000000e+00
6.39777186e+00
6.75591990e+00
6.97466857e+00
0.00000000e+00
6.39766300e+00
6.75586446e+00
6.97465070e+00
0.00000000e+00
6.40605774e+00
6.73442939e+00
6.93048059e+00
0.00000000e+00
6.35848630e+00
6.73512800e+00
6.94091056e+00
0.00000000e+00
6.42222151e+00
6.76703613e+00
6.93613875e+00
0.00000000e+00
6.42832594e+00
6.76780885e+00
6.96583820e+00
0.00000000e+00
6.41715340e+00
6.73247655e+00
6.95051984e+00
0.00000000e+00
6.41749917e+00
6.73249193e+00
6.95051926e+00
0.00000000e+00
6.41106841e+00
6.75414088e+00
6.94317084e+00
0.00000000e+00
6.41122078e+00
6.75416601e+00
6.94315289e+00
0.00000000e+00
6.38145571e+00
6.75717124e+00
6.93582080e+00
0.00000000e+00
6.39525376e+00
6.76059503e+00
6.95745999e+00
0.00000000e+00
6.45513127e+00
6.77401155e+00
6.95698782e+00
0.00000000e+00
6.42812210e+00
6.75179359e+00
6.95271660e+00
0.00000000e+00
6.42260279e+00
6.75466673e+00
6.90862149e+00
0.00000000e+00
6.42265028e+00
6.75446411e+00
6.90862091e+00
