# vtk DataFile Version 3.0
Meteo Turbulence Simulation Result
ASCII
DATASET RECTILINEAR_GRID
DIMENSIONS 17 17 9
X_COORDINATES 17 double
0.000000 31.250000 62.500000 93.750000 125.000000 156.250000 187.500000 218.750000 250.000000 281.250000 312.500000 343.750000 375.000000 406.250000 437.500000 468.750000 500.000000
Y_COORDINATES 17 double
0.000000 31.250000 62.500000 93.750000 125.000000 156.250000 187.500000 218.750000 250.000000 281.250000 312.500000 343.750000 375.000000 406.250000 437.500000 468.750000 500.000000
Z_COORDINATES 9 double
0.000000 17.859319 34.944042 50.608370 64.421112 76.188501 85.922619 93.780608 100.000000
CELL_DATA 2048
SCALARS u double 1
LOOKUP_TABLE default
0.00000000e+00
4.34076860e+00
4.50853440e+00
4.75073941e+00
4.89728593e+00
4.84501239e+00
4.91272858e+00
5.01481775e+00
0.00000000e+00
4.21738025e+00
4.47691703e+00
4.69859469e+00
4.84434588e+00
4.89391654e+00
4.94309816e+00
4.99400498e+00
0.00000000e+00
4.22234890e+00
4.67130829e+00
4.67601607e+00
4.88415946e+00
4.89405639e+00
4.99549661e+00
5.09425236e+00
0.00000000e+00
4.31411566e+00
4.55970138e+00
4.71596194e+00
4.81323041e+00
4.85460787e+00
4.91708349e+00
4.96219860e+00
0.00000000e+00
4.31151174e+00
4.49296000e+00
4.72238364e+00
4.76980336e+00
4.97009659e+00
4.96421656e+00
5.00988216e+00
0.00000000e+00
4.22774531e+00
4.46825331e+00
4.62219098e+00
4.81410205e+00
4.84273695e+00
4.89377544e+00
5.02116515e+00
0.00000000e+00
4.21688822e+00
4.61099724e+00
4.73288172e+00
4.81762821e+00
4.83693307e+00
5.00551563e+00
5.09667556e+00
0.00000000e+00
4.25596414e+00
4.42763287e+00
4.63790619e+00
4.77199898e+00
4.79487564e+00
4.96215879e+00
5.03179475e+00
0.00000000e+00
4.33799972e+00
4.46628810e+00
4.71597917e+00
4.65048895e+00
4.95865821e+00
4.94681378e+00
5.00666216e+00
0.00000000e+00
4.39862164e+00
4.41690252e+00
4.75116079e+00
4.84599262e+00
4.90456956e+00
4.91701734e+00
4.85211002e+00
0.00000000e+00
4.25570689e+00
4.60390388e+00
4.72733800e+00
4.81758619e+00
4.76003976e+00
4.89298201e+00
5.05200138e+00
0.00000000e+00
4.08068775e+00
4.58999767e+00
4.70884012e+00
4.77155749e+00
4.93868857e+00
4.99310989e+00
5.08128699e+00
0.00000000e+00
4.22586206e+00
4.66146010e+00
4.65836755e+00
4.92042030e+00
4.93749420e+00
4.93496818e+00
5.04752136e+00
0.00000000e+00
4.39323654e+00
4.44634395e+00
4.74666571e+00
4.89138335e+00
4.82213135e+00
4.88489046e+00
5.07652441e+00
0.00000000e+00
4.35759648e+00
4.61060300e+00
4.63488121e+00
4.74230594e+00
4.78798104e+00
4.94040382e+00
5.02568724e+00
0.00000000e+00
4.31799836e+00
4.44025973e+00
4.56904169e+00
4.78298579e+00
4.84909809e+00
5.12760867e+00
4.99200262e+00
0.00000000e+00
4.34076860e+00
4.50853440e+00
4.75073941e+00
4.89728593e+00
4.84501239e+00
4.91272858e+00
5.01481775e+00
0.00000000e+00
4.21738025e+00
4.47691703e+00
4.69859469e+00
4.84434588e+00
4.89391654e+00
4.94309816e+00
4.99400498e+00
0.00000000e+00
4.22234890e+00
4.67130829e+00
4.67601607e+00
4.88415946e+00
4.89405639e+00
4.99549661e+00
5.09425236e+00
0.00000000e+00
4.31411566e+00
4.55970138e+00
4.71596194e+00
4.81323041e+00
4.85460787e+00
4.91708349e+00
4.96219860e+00
0.00000000e+00
4.31151174e+00
4.49296000e+00
4.72238364e+00
4.76980336e+00
4.97009659e+00
4.96421656e+00
5.00988216e+00
0.00000000e+00
4.22774531e+00
4.46825331e+00
4.62219098e+00
4.81410205e+00
4.84273695e+00
4.89377544e+00
5.02116515e+00
0.00000000e+00
4.21688822e+00
4.61099724e+00
4.73288172e+00
4.81762821e+00
4.83693307e+00
5.00551563e+00
5.09667556e+00
0.00000000e+00
4.25596414e+00
4.42763287e+00
4.63790619e+00
4.77199898e+00
4.79487564e+00
4.96215879e+00
5.03179475e+00
0.00000000e+00
4.33799972e+00
4.46628810e+00
4.71597917e+00
4.65048895e+00
4.95865821e+00
4.94681378e+00
5.00666216e+00
0.00000000e+00
4.39862164e+00
4.41690252e+00
4.75116079e+00
4.84599262e+00
4.90456956e+00
4.91701734e+00
4.85211002e+00
0.00000000e+00
4.25570689e+00
4.60390388e+00
4.72733800e+00
4.81758619e+00
4.76003976e+00
4.89298201e+00
5.05200138e+00
0.00000000e+00
4.08068775e+00
4.58999767e+00
4.70884012e+00
4.77155749e+00
4.93868857e+00
4.99310989e+00
5.08128699e+00
0.00000000e+00
4.22586206e+00
4.66146010e+00
4.65836755e+00
4.92042030e+00
4.93749420e+00
4.93496818e+00
5.04752136e+00
0.00000000e+00
4.39323654e+00
4.44634395e+00
4.74666571e+00
4.89138335e+00
4.82213135e+00
4.88489046e+00
5.07652441e+00
0.00000000e+00
4.35759648e+00
4.61060300e+00
4.63488121e+00
4.74230594e+00
4.78798104e+00
4.94040382e+00
5.02568724e+00
0.00000000e+00
4.31799836e+00
4.44025973e+00
4.56904169e+00
4.78298579e+00
4.84909809e+00
5.12760867e+00
4.99200262e+00
0.00000000e+00
4.26976536e+00
4.58214325e+00
4.61211321e+00
4.72114910e+00
4.90914440e+00
4.96064663e+00
4.92221054e+00
0.00000000e+00
4.27694153e+00
4.52589841e+00
4.64660847e+00
4.85158253e+00
5.04429796e+00
5.00525919e+00
5.08270078e+00
0.00000000e+00
4.29893235e+00
4.63693998e+00
4.72449463e+00
4.76581028e+00
4.86731529e+00
4.89002549e+00
4.91384144e+00
0.00000000e+00
4.43292050e+00
4.42072767e+00
4.78282260e+00
4.75083009e+00
4.85529104e+00
4.99495705e+00
5.01793944e+00
0.00000000e+00
4.22593750e+00
4.60089402e+00
4.71903771e+00
4.91146082e+00
4.93555974e+00
4.94692762e+00
4.93157926e+00
0.00000000e+00
4.34344160e+00
4.63211457e+00
4.86672856e+00
4.88646085e+00
4.92506564e+00
4.96732781e+00
5.02163667e+00
0.00000000e+00
4.29657289e+00
4.64104152e+00
4.70728432e+00
4.78308786e+00
4.97158188e+00
4.86899558e+00
4.89607413e+00
0.00000000e+00
4.47523714e+00
4.50173196e+00
4.62977698e+00
4.77533055e+00
4.98388685e+00
4.87892180e+00
4.90288382e+00
0.00000000e+00
4.20316186e+00
4.51405475e+00
4.69546570e+00
4.80915292e+00
4.86634477e+00
4.92806487e+00
5.04231861e+00
0.00000000e+00
4.39645131e+00
4.56051302e+00
4.61439009e+00
4.77899260e+00
4.84503818e+00
4.95092219e+00
5.09807966e+00
0.00000000e+00
4.25987591e+00
4.55940145e+00
4.71203469e+00
4.69961503e+00
4.89325686e+00
4.92794178e+00
4.92676939e+00
0.00000000e+00
4.20828451e+00
4.46348859e+00
4.78908908e+00
4.68371065e+00
4.93097591e+00
4.95842518e+00
5.00842735e+00
0.00000000e+00
4.35015747e+00
4.64870399e+00
4.77118143e+00
4.88169900e+00
4.79392481e+00
5.00553353e+00
4.91123559e+00
0.00000000e+00
4.30408457e+00
4.47072127e+00
4.73188160e+00
4.79498594e+00
4.92285493e+00
4.99584996e+00
5.08477365e+00
0.00000000e+00
4.17665953e+00
4.54071845e+00
4.57830420e+00
4.99382622e+00
4.92080243e+00
4.96051216e+00
4.92590873e+00
0.00000000e+00
4.20285922e+00
4.48714332e+00
4.69202941e+00
4.82433870e+00
4.79809737e+00
4.91554416e+00
4.97646959e+00
0.00000000e+00
4.28507718e+00
4.56192873e+00
4.62722555e+00
4.71474914e+00
4.82257115e+00
4.96744564e+00
5.17134584e+00
0.00000000e+00
4.36323579e+00
4.51530154e+00
4.76560609e+00
4.78841572e+00
4.84805265e+00
5.01853455e+00
4.94534967e+00
0.00000000e+00
4.27858323e+00
4.50187559e+00
4.54590888e+00
4.85487685e+00
4.88022348e+00
4.96199546e+00
4.97339966e+00
0.00000000e+00
4.27069815e+00
4.52813348e+00
4.77216655e+00
4.76704569e+00
4.93840124e+00
4.95330547e+00
4.97204643e+00
0.00000000e+00
4.35396766e+00
4.60260003e+00
4.66312064e+00
4.75491211e+00
4.96932333e+00
4.91841907e+00
4.89398885e+00
0.00000000e+00
4.27588627e+00
4.58022525e+00
4.75590301e+00
4.87927560e+00
4.83653287e+00
4.96698848e+00
4.83877738e+00
0.00000000e+00
4.35823259e+00
4.32907841e+00
4.58611670e+00
4.84011519e+00
4.93687344e+00
4.98188602e+00
4.97083267e+00
0.00000000e+00
4.28857244e+00
4.54219364e+00
4.83809906e+00
4.98625068e+00
4.86910547e+00
5.06555928e+00
4.88009628e+00
0.00000000e+00
4.23751022e+00
4.67557007e+00
4.66017275e+00
4.77707198e+00
4.82009800e+00
4.90416071e+00
4.94714390e+00
0.00000000e+00
4.26287169e+00
4.54493526e+00
4.70014866e+00
4.70109808e+00
4.76654546e+00
4.92793846e+00
4.87638322e+00
0.00000000e+00
4.25711802e+00
4.44073905e+00
4.62544183e+00
4.73036389e+00
4.91799525e+00
4.96137795e+00
5.03763441e+00
0.00000000e+00
4.35292740e+00
4.59611087e+00
4.79326400e+00
4.89563327e+00
4.89207171e+00
4.90268481e+00
4.92677278e+00
0.00000000e+00
4.16242625e+00
4.46748585e+00
4.59013004e+00
4.80025273e+00
4.86240046e+00
4.89837109e+00
5.08312671e+00
0.00000000e+00
4.32657050e+00
4.48832134e+00
4.72021734e+00
4.74317468e+00
4.91192516e+00
4.97077738e+00
5.00393093e+00
0.00000000e+00
4.25015595e+00
4.59479127e+00
4.68828806e+00
4.82347363e+00
4.89654534e+00
4.96894163e+00
5.03272797e+00
0.00000000e+00
4.31917212e+00
4.56808732e+00
4.69004009e+00
4.78737580e+00
4.91356512e+00
4.80116857e+00
4.96189813e+00
0.00000000e+00
4.19423339e+00
4.64702453e+00
4.64471859e+00
4.75510232e+00
4.88533791e+00
4.84172037e+00
4.85816921e+00
0.00000000e+00
4.29543680e+00
4.43586006e+00
4.72297953e+00
4.79995117e+00
4.88060823e+00
4.90663175e+00
4.99452688e+00
0.00000000e+00
4.17349571e+00
4.46133334e+00
4.62808248e+00
4.76267519e+00
4.89377393e+00
4.94258619e+00
4.90769200e+00
0.00000000e+00
4.40329932e+00
4.39703026e+00
4.75899933e+00
4.83148568e+00
4.94221878e+00
5.04841307e+00
5.04640227e+00
0.00000000e+00
4.34292259e+00
4.55720028e+00
4.77249882e+00
4.73094029e+00
4.89135497e+00
4.85003699e+00
4.86268074e+00
0.00000000e+00
4.17011077e+00
4.41879708e+00
4.64941561e+00
4.69483383e+00
4.96679248e+00
5.02434798e+00
5.02398095e+00
0.00000000e+00
4.21173507e+00
4.56287083e+00
4.71600580e+00
4.80671573e+00
4.81911326e+00
4.87378264e+00
4.94966680e+00
0.00000000e+00
4.21834540e+00
4.66787369e+00
4.64609865e+00
4.88543783e+00
4.95019283e+00
4.95115637e+00
5.01182713e+00
0.00000000e+00
4.22808478e+00
4.54429194e+00
4.70288038e+00
4.84221972e+00
4.78849854e+00
5.01248897e+00
4.88847714e+00
0.00000000e+00
4.34535361e+00
4.52393296e+00
4.67250708e+00
4.86268005e+00
4.91785726e+00
5.02628060e+00
5.14135933e+00
0.00000000e+00
4.36730943e+00
4.58474949e+00
4.74579760e+00
4.76332204e+00
4.86914499e+00
4.80045106e+00
5.11078815e+00
0.00000000e+00
4.32796637e+00
4.59448794e+00
4.74703912e+00
4.81610619e+00
4.92051602e+00
4.99407503e+00
4.94785749e+00
0.00000000e+00
4.24007172e+00
4.60751181e+00
4.60257954e+00
4.71053258e+00
4.94546247e+00
4.89869961e+00
4.98673945e+00
0.00000000e+00
4.33459408e+00
4.69998796e+00
4.75772025e+00
4.87713344e+00
4.95619433e+00
4.94149813e+00
5.05475265e+00
0.00000000e+00
4.21803712e+00
4.56425881e+00
4.71602908e+00
4.78658075e+00
4.69468536e+00
4.94198369e+00
4.91889237e+00
0.00000000e+00
4.30475759e+00
4.38671854e+00
4.75293996e+00
4.78447256e+00
4.90013958e+00
4.74704252e+00
5.05525446e+00
0.00000000e+00
4.31563606e+00
4.54045952e+00
4.70455418e+00
4.83367598e+00
4.84632303e+00
4.98209913e+00
5.04511790e+00
0.00000000e+00
4.37157137e+00
4.61642428e+00
4.60102144e+00
4.71759760e+00
4.95085609e+00
4.97826988e+00
4.98784151e+00
0.00000000e+00
4.12183124e+00
4.49127585e+00
4.77348602e+00
4.85952886e+00
4.91689256e+00
5.01207917e+00
4.96563607e+00
0.00000000e+00
4.29160365e+00
4.62759010e+00
4.71045699e+00
4.74924411e+00
4.76052606e+00
4.84702099e+00
4.93955581e+00
0.00000000e+00
4.22592910e+00
4.51062519e+00
4.64300726e+00
4.77426159e+00
4.70332230e+00
4.91801970e+00
4.96500064e+00
0.00000000e+00
4.28231884e+00
4.64789720e+00
4.76051379e+00
4.79865022e+00
4.97363880e+00
4.94401340e+00
5.07287833e+00
0.00000000e+00
4.28524955e+00
4.49131196e+00
4.74847612e+00
4.99742704e+00
4.90544100e+00
5.06032691e+00
5.00132912e+00
0.00000000e+00
4.27747954e+00
4.49083539e+00
4.69301626e+00
4.86898165e+00
4.73669303e+00
4.97611633e+00
4.97202150e+00
0.00000000e+00
4.23710768e+00
4.54772039e+00
4.73900714e+00
4.79139902e+00
4.96897231e+00
4.88054231e+00
4.96639452e+00
0.00000000e+00
4.15860232e+00
4.56806302e+00
4.73227899e+00
4.85334341e+00
4.97526440e+00
4.90696244e+00
5.08012123e+00
0.00000000e+00
4.26187178e+00
4.65267460e+00
4.68446207e+00
4.84050818e+00
4.86205259e+00
4.93884071e+00
4.88776552e+00
0.00000000e+00
4.29457218e+00
4.48371576e+00
4.62470867e+00
4.76350511e+00
4.92026523e+00
4.97650740e+00
5.01353638e+00
0.00000000e+00
4.24541990e+00
4.47348365e+00
4.71743992e+00
4.86393497e+00
4.91029792e+00
4.92158825e+00
5.05567891e+00
0.00000000e+00
4.32416076e+00
4.58251817e+00
4.75818073e+00
4.82227443e+00
4.82680896e+00
4.93246965e+00
4.89003001e+00
0.00000000e+00
4.39991936e+00
4.58714619e+00
4.61971211e+00
4.87318122e+00
4.80455397e+00
4.86016140e+00
5.01284500e+00
0.00000000e+00
4.27599562e+00
4.58697031e+00
4.62914490e+00
4.68562371e+00
4.96462360e+00
5.20136248e+00
5.06476794e+00
0.00000000e+00
4.21033540e+00
4.49882675e+00
4.60236493e+00
4.90833533e+00
4.93807469e+00
4.80153965e+00
4.93005275e+00
0.00000000e+00
4.20764682e+00
4.54060090e+00
4.74726649e+00
4.84075270e+00
4.85306396e+00
5.00535174e+00
4.97663715e+00
0.00000000e+00
4.35454785e+00
4.56830088e+00
4.83033146e+00
4.77426680e+00
4.92648864e+00
4.93820450e+00
5.12698343e+00
0.00000000e+00
4.27047935e+00
4.50109807e+00
4.73252234e+00
4.84356214e+00
4.91711424e+00
4.94446868e+00
4.94723630e+00
0.00000000e+00
4.32689143e+00
4.50741922e+00
4.66816231e+00
4.80566537e+00
4.98053501e+00
4.97118178e+00
5.01191191e+00
0.00000000e+00
4.36696548e+00
4.46127438e+00
4.73320538e+00
4.78691447e+00
4.86344640e+00
4.89524814e+00
4.85834914e+00
0.00000000e+00
4.42265395e+00
4.61910973e+00
4.55564355e+00
4.77119707e+00
5.00354468e+00
4.91824476e+00
4.88300959e+00
0.00000000e+00
4.33496982e+00
4.63964697e+00
4.70469974e+00
4.74895891e+00
4.79574671e+00
4.86321020e+00
4.96629540e+00
0.00000000e+00
4.30755000e+00
4.60145042e+00
4.60460591e+00
4.90001074e+00
4.88994858e+00
4.97101144e+00
5.08756438e+00
0.00000000e+00
4.28522503e+00
4.54068027e+00
4.77537216e+00
4.92595395e+00
4.80072752e+00
4.90722769e+00
4.88857874e+00
0.00000000e+00
4.17467138e+00
4.53431946e+00
4.72923259e+00
4.75656584e+00
4.91139774e+00
4.95354009e+00
4.93547509e+00
0.00000000e+00
4.20710363e+00
4.46507965e+00
4.67477753e+00
4.77487545e+00
4.83705456e+00
5.03893805e+00
4.95962527e+00
0.00000000e+00
4.10126619e+00
4.48942219e+00
4.67612351e+00
4.83100809e+00
4.93541850e+00
4.93699553e+00
5.06301479e+00
0.00000000e+00
4.23785794e+00
4.53860475e+00
4.70162128e+00
4.74996433e+00
4.79278121e+00
4.91021902e+00
4.94632428e+00
0.00000000e+00
4.25740780e+00
4.54153460e+00
4.70508943e+00
4.75307720e+00
4.97859868e+00
5.02598375e+00
5.01536204e+00
0.00000000e+00
4.31166350e+00
4.55600897e+00
4.75545521e+00
4.78210627e+00
4.93298964e+00
4.99982525e+00
4.97861818e+00
0.00000000e+00
4.26268741e+00
4.41311604e+00
4.77132003e+00
4.67093875e+00
4.73946515e+00
4.91679794e+00
4.90078716e+00
0.00000000e+00
4.43408609e+00
4.58066294e+00
4.69494568e+00
4.85412764e+00
4.92914725e+00
4.96003744e+00
4.93238438e+00
0.00000000e+00
4.23625322e+00
4.50657785e+00
4.65671801e+00
4.84969460e+00
4.98206846e+00
4.88198242e+00
4.94860546e+00
0.00000000e+00
4.21866577e+00
4.45686426e+00
4.57727843e+00
4.81566458e+00
4.92390007e+00
5.04263143e+00
5.10297286e+00
0.00000000e+00
4.14990923e+00
4.61394140e+00
4.76393457e+00
4.84846405e+00
4.82606577e+00
4.95035269e+00
5.03899649e+00
0.00000000e+00
4.31211717e+00
4.63717520e+00
4.64693827e+00
4.74444525e+00
4.96714868e+00
5.02824524e+00
5.07052646e+00
0.00000000e+00
4.25729785e+00
4.50151151e+00
4.71074346e+00
4.80375898e+00
4.82130151e+00
4.82614715e+00
4.91446342e+00
0.00000000e+00
4.29649860e+00
4.57103502e+00
4.64559917e+00
4.68936338e+00
4.86786364e+00
4.90376949e+00
5.04680111e+00
0.00000000e+00
4.25871037e+00
4.49782989e+00
4.69099863e+00
4.76704980e+00
4.83193050e+00
4.92372656e+00
4.83380485e+00
0.00000000e+00
4.22744021e+00
4.59213320e+00
4.73465908e+00
4.77738411e+00
4.87911337e+00
5.00469935e+00
4.98303414e+00
0.00000000e+00
4.26266136e+00
4.42023574e+00
4.62026460e+00
5.03651932e+00
4.84463453e+00
4.94678720e+00
4.96134076e+00
0.00000000e+00
4.41517205e+00
4.55315311e+00
4.73390529e+00
4.69907243e+00
4.83721009e+00
4.98191381e+00
4.99124715e+00
0.00000000e+00
4.29448701e+00
4.54734246e+00
4.70029740e+00
4.74174634e+00
4.85357252e+00
4.98505441e+00
4.94384791e+00
0.00000000e+00
4.25600011e+00
4.45297336e+00
4.67691156e+00
4.64788206e+00
4.91687006e+00
4.91851179e+00
4.94426648e+00
0.00000000e+00
4.29744974e+00
4.40795589e+00
4.63592864e+00
4.89599970e+00
4.96517745e+00
5.00267725e+00
5.06028525e+00
0.00000000e+00
4.33493441e+00
4.52216062e+00
4.64203195e+00
4.77867155e+00
4.80810782e+00
4.95818302e+00
4.97162643e+00
0.00000000e+00
4.27929849e+00
4.52515221e+00
4.66627562e+00
4.92266454e+00
4.91987694e+00
5.01724285e+00
4.95613569e+00
0.00000000e+00
4.21140595e+00
4.62153327e+00
4.70038170e+00
4.69605976e+00
4.83051649e+00
4.89713059e+00
4.90770525e+00
0.00000000e+00
4.31440198e+00
4.46920513e+00
4.72143306e+00
4.72089730e+00
4.91724323e+00
4.94563348e+00
4.97072283e+00
0.00000000e+00
4.25161431e+00
4.64372844e+00
4.79334887e+00
4.79260906e+00
4.85754841e+00
5.03815003e+00
5.15704748e+00
0.00000000e+00
4.32156851e+00
4.61384694e+00
4.63399024e+00
4.80089788e+00
4.93750261e+00
4.91644561e+00
4.87499014e+00
0.00000000e+00
4.16272537e+00
4.62798801e+00
4.64798719e+00
4.77544810e+00
4.88110171e+00
4.89344566e+00
4.91113664e+00
0.00000000e+00
4.20693017e+00
4.39674482e+00
4.65244447e+00
4.73166044e+00
5.08027002e+00
4.88702797e+00
5.07326986e+00
0.00000000e+00
4.31561609e+00
4.59995523e+00
4.76999757e+00
4.80773052e+00
4.95083907e+00
5.00090919e+00
5.04184556e+00
0.00000000e+00
4.30511008e+00
4.51393633e+00
4.42942613e+00
4.69537232e+00
4.79282088e+00
4.99492172e+00
4.98594485e+00
0.00000000e+00
4.21282619e+00
4.49508830e+00
4.70714776e+00
4.73814269e+00
4.89953127e+00
4.85088465e+00
4.99444302e+00
0.00000000e+00
4.35746269e+00
4.57586718e+00
4.80980422e+00
4.94791240e+00
4.92195585e+00
4.91286675e+00
5.02157873e+00
0.00000000e+00
4.33599255e+00
4.63232075e+00
4.82520015e+00
4.90096207e+00
4.82911696e+00
4.79828710e+00
4.92484542e+00
0.00000000e+00
4.18201385e+00
4.53571532e+00
4.63893488e+00
4.91207379e+00
4.92703922e+00
4.91979306e+00
5.05864133e+00
0.00000000e+00
4.27074587e+00
4.76266543e+00
4.68487841e+00
4.88265983e+00
4.89177129e+00
4.99032010e+00
5.03996076e+00
0.00000000e+00
4.32370585e+00
4.57525659e+00
4.84028098e+00
4.83831466e+00
4.92239143e+00
4.92876254e+00
5.06939640e+00
0.00000000e+00
4.24295636e+00
4.46634848e+00
4.64023065e+00
4.66390748e+00
4.81293755e+00
4.98314831e+00
4.90361863e+00
0.00000000e+00
4.41508684e+00
4.62841991e+00
4.78808668e+00
4.78929480e+00
4.93395070e+00
4.87676471e+00
4.99557926e+00
0.00000000e+00
4.39417916e+00
4.42787779e+00
4.60487718e+00
4.72772206e+00
4.86244723e+00
5.03903758e+00
4.94026575e+00
0.00000000e+00
4.23950132e+00
4.59761727e+00
4.78247261e+00
4.86981108e+00
4.93491394e+00
4.96949556e+00
4.95150580e+00
0.00000000e+00
4.11288348e+00
4.57411726e+00
4.64007683e+00
4.94372525e+00
4.88561417e+00
4.80865285e+00
4.86829828e+00
0.00000000e+00
4.31632863e+00
4.47426513e+00
4.76220997e+00
4.84131267e+00
4.85330436e+00
4.75537012e+00
5.04729831e+00
0.00000000e+00
4.28941413e+00
4.53790052e+00
4.76276248e+00
4.82876539e+00
4.92234814e+00
5.02096609e+00
4.99527553e+00
0.00000000e+00
4.36557125e+00
4.53522388e+00
4.78673944e+00
4.77094416e+00
4.88918466e+00
4.91632706e+00
5.14835210e+00
0.00000000e+00
4.21400193e+00
4.56022215e+00
4.60833133e+00
4.73793755e+00
4.88360693e+00
4.85663326e+00
4.94047816e+00
0.00000000e+00
4.19660184e+00
4.54158593e+00
4.53093737e+00
4.73214821e+00
4.92583549e+00
5.02393005e+00
4.96635629e+00
0.00000000e+00
4.22040193e+00
4.50753083e+00
4.73316194e+00
4.79007268e+00
5.01930962e+00
5.01666506e+00
5.01437481e+00
0.00000000e+00
4.24362014e+00
4.58055137e+00
4.70270133e+00
4.80449682e+00
4.88810746e+00
4.92574550e+00
4.93702126e+00
0.00000000e+00
4.30333623e+00
4.55886023e+00
4.79322145e+00
4.93023942e+00
4.82708224e+00
4.89275349e+00
4.84975478e+00
0.00000000e+00
4.19786791e+00
4.54573440e+00
4.63333219e+00
4.83689722e+00
4.87389092e+00
5.00626218e+00
4.86102597e+00
0.00000000e+00
4.39089972e+00
4.50309753e+00
4.73683146e+00
5.00927477e+00
4.92658319e+00
5.05509502e+00
4.91057582e+00
0.00000000e+00
4.26904417e+00
4.47775888e+00
4.60984973e+00
4.78560186e+00
4.68132069e+00
4.88175094e+00
5.02054518e+00
0.00000000e+00
4.21982693e+00
4.51374039e+00
4.65123207e+00
4.87809174e+00
4.83893899e+00
4.99260755e+00
5.03287482e+00
0.00000000e+00
4.21111965e+00
4.38154467e+00
4.73901115e+00
4.83021457e+00
4.88662163e+00
4.96284245e+00
4.96871582e+00
0.00000000e+00
4.26811261e+00
4.48521809e+00
4.58976530e+00
4.91468981e+00
4.84718312e+00
5.00441536e+00
4.99220105e+00
0.00000000e+00
4.40557656e+00
4.59837208e+00
4.70884733e+00
4.80925374e+00
4.86886238e+00
4.96964017e+00
4.78325041e+00
0.00000000e+00
4.36924428e+00
4.58764411e+00
4.76996004e+00
4.76625140e+00
4.95300735e+00
4.94441575e+00
4.99282895e+00
0.00000000e+00
4.27857948e+00
4.50786595e+00
4.76695859e+00
4.80859954e+00
4.85971783e+00
4.88909259e+00
4.93032619e+00
0.00000000e+00
4.32942055e+00
4.55592915e+00
4.54254328e+00
4.75200199e+00
4.95391608e+00
4.96297006e+00
4.92553235e+00
0.00000000e+00
4.25652893e+00
4.54319656e+00
4.58174480e+00
4.95822658e+00
4.86733287e+00
4.90416886e+00
4.95518025e+00
0.00000000e+00
4.34073230e+00
4.52409575e+00
4.64327911e+00
4.76131736e+00
4.79768448e+00
4.89899491e+00
5.06134147e+00
0.00000000e+00
4.20568461e+00
4.41390099e+00
4.83326244e+00
4.82363938e+00
4.83453793e+00
4.88444867e+00
4.99458347e+00
0.00000000e+00
4.32966454e+00
4.54528643e+00
4.64374810e+00
4.65513337e+00
4.82274186e+00
4.91034838e+00
4.93234491e+00
0.00000000e+00
4.26581583e+00
4.69032088e+00
4.68405529e+00
4.83508391e+00
4.84884624e+00
4.93516131e+00
5.06465671e+00
0.00000000e+00
4.29406739e+00
4.52184157e+00
4.66543738e+00
4.72862626e+00
4.88724673e+00
4.98964759e+00
5.02973675e+00
0.00000000e+00
4.22772149e+00
4.58087739e+00
4.69472895e+00
4.85023110e+00
4.93857411e+00
4.96110589e+00
5.05504007e+00
0.00000000e+00
4.33669352e+00
4.52504761e+00
4.80659522e+00
4.80401804e+00
4.88865717e+00
4.91923839e+00
4.94750379e+00
0.00000000e+00
4.31857312e+00
4.55574626e+00
4.68173274e+00
4.90383379e+00
4.97157362e+00
4.88782500e+00
4.83538975e+00
0.00000000e+00
4.21711896e+00
4.55121586e+00
4.65119959e+00
4.75440344e+00
4.91394695e+00
5.03933548e+00
4.95557441e+00
0.00000000e+00
4.22378994e+00
4.35757838e+00
4.68672574e+00
4.88511334e+00
4.90726865e+00
4.93468603e+00
5.06819998e+00
0.00000000e+00
4.30032852e+00
4.63549904e+00
4.71694181e+00
4.85915669e+00
4.90855416e+00
4.97500903e+00
4.93467886e+00
0.00000000e+00
4.35264112e+00
4.55800447e+00
4.63017724e+00
4.74040332e+00
4.92210413e+00
5.02767923e+00
5.08037528e+00
0.00000000e+00
4.33821687e+00
4.62598085e+00
4.63708512e+00
4.74847250e+00
4.89314290e+00
4.83476443e+00
5.01376675e+00
0.00000000e+00
4.39919024e+00
4.50740217e+00
4.70858472e+00
4.84789824e+00
4.88731648e+00
4.90656732e+00
5.09694444e+00
0.00000000e+00
4.39010651e+00
4.66095367e+00
4.68450045e+00
4.88192866e+00
4.82423729e+00
4.89172213e+00
4.98202288e+00
0.00000000e+00
4.19697021e+00
4.47907919e+00
4.62292868e+00
4.71087139e+00
4.88514756e+00
4.93825791e+00
5.00008957e+00
0.00000000e+00
4.25447754e+00
4.60288677e+00
4.78525790e+00
4.90397596e+00
4.89767147e+00
5.00794586e+00
4.97274006e+00
0.00000000e+00
4.25831573e+00
4.55676605e+00
4.70047558e+00
4.94874258e+00
4.93940652e+00
4.93214061e+00
4.99634854e+00
0.00000000e+00
4.25298328e+00
4.49215072e+00
4.69768381e+00
4.76397921e+00
4.78505547e+00
4.96279229e+00
4.88604757e+00
0.00000000e+00
4.36464176e+00
4.50736758e+00
4.67099060e+00
4.82004917e+00
4.87841294e+00
4.94829918e+00
5.02147993e+00
0.00000000e+00
4.39848521e+00
4.53902205e+00
4.83015171e+00
4.77730274e+00
4.81001930e+00
4.88320639e+00
4.89498659e+00
0.00000000e+00
4.26985985e+00
4.62221486e+00
4.77217908e+00
4.74459067e+00
4.87713928e+00
4.91970444e+00
4.99342624e+00
0.00000000e+00
4.20963946e+00
4.39887953e+00
4.58064469e+00
4.68826182e+00
4.80626788e+00
4.87594287e+00
4.92704075e+00
0.00000000e+00
4.22989993e+00
4.61514863e+00
4.68894216e+00
4.83535314e+00
4.92349437e+00
4.96774024e+00
5.08174571e+00
0.00000000e+00
4.31279032e+00
4.48092885e+00
4.69500599e+00
4.86031072e+00
4.85028988e+00
4.99138510e+00
4.98280858e+00
0.00000000e+00
4.15969981e+00
4.65167475e+00
4.82450123e+00
4.76290294e+00
4.87045008e+00
4.90362177e+00
4.98526012e+00
0.00000000e+00
4.26079826e+00
4.47381374e+00
4.75686415e+00
4.84621988e+00
4.83161921e+00
4.90576562e+00
4.93864128e+00
0.00000000e+00
4.26004513e+00
4.48704574e+00
4.69830822e+00
4.70892098e+00
4.96907080e+00
4.86859492e+00
4.88489984e+00
0.00000000e+00
4.39979256e+00
4.44256065e+00
4.76012299e+00
4.78717174e+00
4.94281416e+00
5.04636792e+00
4.91263028e+00
0.00000000e+00
4.28167446e+00
4.55787713e+00
4.64374179e+00
4.88446947e+00
4.84747681e+00
4.91192728e+00
4.91381015e+00
0.00000000e+00
4.28256207e+00
4.37761965e+00
4.63670186e+00
4.88624423e+00
4.80291965e+00
4.95345852e+00
4.87805733e+00
0.00000000e+00
4.19954612e+00
4.38741517e+00
4.72376235e+00
4.79586517e+00
4.83898601e+00
4.92674319e+00
4.93323074e+00
0.00000000e+00
4.26923576e+00
4.64249119e+00
4.77665288e+00
4.94299487e+00
4.93080372e+00
4.88483558e+00
5.01682659e+00
0.00000000e+00
4.31629202e+00
4.54150816e+00
4.69475104e+00
4.89422519e+00
4.85033251e+00
4.90729771e+00
5.03441968e+00
0.00000000e+00
4.26305399e+00
4.56629389e+00
4.82027310e+00
4.83489611e+00
4.88939223e+00
5.05937782e+00
5.00091466e+00
0.00000000e+00
4.19633650e+00
4.60168531e+00
4.71248875e+00
4.80500301e+00
4.90612240e+00
4.93331662e+00
5.16360549e+00
0.00000000e+00
4.31396951e+00
4.64101370e+00
4.77604130e+00
4.81072578e+00
4.96870329e+00
5.00242905e+00
5.02847505e+00
0.00000000e+00
4.20014256e+00
4.56033102e+00
4.45166076e+00
4.67922586e+00
4.84233376e+00
4.88676851e+00
4.96245075e+00
0.00000000e+00
4.31292289e+00
4.46907942e+00
4.62610717e+00
4.75511920e+00
4.86154384e+00
4.97611207e+00
4.92414779e+00
0.00000000e+00
4.21371384e+00
4.63717737e+00
4.78682161e+00
4.77860666e+00
4.80818650e+00
4.90172019e+00
4.95863347e+00
0.00000000e+00
4.27470453e+00
4.46392072e+00
4.65850670e+00
4.77849140e+00
4.80736459e+00
4.83120286e+00
4.94251056e+00
0.00000000e+00
4.43488331e+00
4.58338249e+00
4.66902845e+00
4.80236538e+00
4.97644718e+00
4.85383654e+00
5.03092905e+00
0.00000000e+00
4.13732775e+00
4.58937889e+00
4.71723837e+00
4.70490239e+00
4.91016995e+00
4.87313496e+00
4.97469990e+00
0.00000000e+00
4.21962629e+00
4.51450180e+00
4.64987766e+00
4.87092890e+00
4.92256041e+00
4.83770173e+00
4.94521515e+00
0.00000000e+00
4.33534356e+00
4.56528160e+00
4.67517333e+00
4.86436842e+00
4.93253731e+00
4.89481692e+00
4.98753882e+00
0.00000000e+00
4.34184376e+00
4.47973621e+00
4.73219615e+00
4.76066021e+00
4.95154418e+00
4.87411036e+00
4.95798519e+00
0.00000000e+00
4.25967683e+00
4.36959946e+00
4.68358135e+00
4.75705681e+00
4.85720047e+00
4.99160283e+00
5.02859752e+00
0.00000000e+00
4.23145886e+00
4.56654584e+00
4.75577402e+00
4.82417724e+00
4.91546618e+00
4.83792224e+00
4.91457296e+00
0.00000000e+00
4.23523096e+00
4.60069178e+00
4.64477452e+00
4.91634214e+00
4.79621070e+00
4.95035999e+00
4.82524482e+00
0.00000000e+00
4.24256288e+00
4.55922947e+00
4.62610901e+00
4.92934142e+00
4.82946366e+00
4.94590774e+00
5.08237110e+00
0.00000000e+00
4.24166283e+00
4.72022988e+00
4.70956960e+00
4.69970182e+00
4.95318273e+00
5.02936658e+00
4.92414139e+00
0.00000000e+00
4.17935423e+00
4.53957192e+00
4.74469363e+00
4.83029907e+00
4.78439161e+00
5.00434950e+00
5.01076423e+00
0.00000000e+00
4.32568594e+00
4.52921341e+00
4.73272470e+00
4.82120015e+00
4.84239897e+00
4.87288264e+00
4.98542751e+00
0.00000000e+00
4.34236372e+00
4.45272910e+00
4.69011884e+00
4.88878324e+00
4.99493228e+00
4.90921381e+00
5.02731263e+00
0.00000000e+00
4.30527981e+00
4.57933768e+00
4.68911322e+00
4.74344563e+00
4.77045804e+00
5.10179132e+00
4.93587315e+00
0.00000000e+00
4.13396733e+00
4.61949253e+00
4.69690533e+00
4.75371972e+00
4.87417572e+00
4.83984123e+00
5.03780883e+00
0.00000000e+00
4.34939814e+00
4.54854695e+00
4.70992647e+00
4.79489534e+00
4.92636685e+00
4.91048304e+00
4.91270839e+00
0.00000000e+00
4.31945775e+00
4.49973997e+00
4.66375085e+00
4.81382211e+00
4.93169582e+00
4.97114256e+00
5.03425416e+00
0.00000000e+00
4.31433193e+00
4.58544203e+00
4.67933475e+00
4.83967729e+00
4.83106825e+00
4.90235395e+00
4.96910370e+00
0.00000000e+00
4.27634893e+00
4.63330546e+00
4.67422562e+00
4.83420178e+00
4.79860429e+00
4.90745009e+00
5.05205440e+00
0.00000000e+00
4.25674398e+00
4.55694334e+00
4.68835928e+00
4.69529613e+00
4.84481520e+00
4.95199930e+00
4.91266231e+00
0.00000000e+00
4.29918111e+00
4.44581031e+00
4.61053422e+00
4.85354464e+00
4.89587967e+00
5.02416932e+00
5.01993551e+00
0.00000000e+00
4.10495557e+00
4.54321137e+00
4.74610825e+00
4.83579047e+00
4.95913988e+00
4.91671400e+00
4.97613387e+00
0.00000000e+00
4.24937715e+00
4.51738125e+00
4.64820367e+00
4.71745635e+00
4.86893757e+00
4.92876041e+00
5.02593423e+00
0.00000000e+00
4.18270352e+00
4.38678214e+00
4.61682958e+00
4.83118666e+00
4.89168750e+00
4.98748332e+00
4.98139798e+00
0.00000000e+00
4.26809536e+00
4.57758668e+00
4.75720893e+00
4.76012939e+00
4.95909324e+00
4.95651766e+00
5.00817033e+00
0.00000000e+00
4.30138476e+00
4.56268926e+00
4.67494966e+00
4.97985522e+00
5.02246913e+00
4.87985579e+00
4.91358379e+00
0.00000000e+00
4.33036925e+00
4.61188409e+00
4.62250732e+00
4.77574527e+00
4.82640280e+00
5.00917204e+00
4.84960543e+00
0.00000000e+00
4.28601353e+00
4.47323656e+00
4.60521395e+00
4.77359959e+00
4.81850542e+00
4.82332143e+00
5.02433032e+00
0.00000000e+00
4.40058139e+00
4.54615861e+00
4.73481677e+00
4.71517039e+00
4.85280614e+00
4.99135999e+00
5.07782514e+00
0.00000000e+00
4.19576085e+00
4.54594029e+00
4.54616831e+00
4.74453624e+00
5.03782272e+00
4.92316356e+00
4.90845525e+00
0.00000000e+00
4.33999687e+00
4.46147129e+00
4.61740033e+00
4.86722522e+00
4.89880049e+00
4.90669798e+00
4.99982082e+00
0.00000000e+00
4.22496754e+00
4.51334108e+00
4.79270348e+00
4.87089529e+00
4.85596998e+00
5.03337102e+00
5.04383531e+00
0.00000000e+00
4.31945775e+00
4.49973997e+00
4.66375085e+00
4.81382211e+00
4.93169582e+00
4.97114256e+00
5.03425416e+00
0.00000000e+00
4.31433193e+00
4.58544203e+00
4.67933475e+00
4.83967729e+00
4.83106825e+00
4.90235395e+00
4.96910370e+00
0.00000000e+00
4.27634893e+00
4.63330546e+00
4.67422562e+00
4.83420178e+00
4.79860429e+00
4.90745009e+00
5.05205440e+00
0.00000000e+00
4.25674398e+00
4.55694334e+00
4.68835928e+00
4.69529613e+00
4.84481520e+00
4.95199930e+00
4.91266231e+00
0.00000000e+00