# vtk DataFile Version 3.0
Meteo Turbulence Simulation Result
ASCII
DATASET RECTILINEAR_GRID
DIMENSIONS 17 17 9
X_COORDINATES 17 double
0.000000 31.250000 62.500000 93.750000 125.000000 156.250000 187.500000 218.750000 250.000000 281.250000 312.500000 343.750000 375.000000 406.250000 437.500000 468.750000 500.000000
Y_COORDINATES 17 double
0.000000 31.250000 62.500000 93.750000 125.000000 156.250000 187.500000 218.750000 250.000000 281.250000 312.500000 343.750000 375.000000 406.250000 437.500000 468.750000 500.000000
Z_COORDINATES 9 double
0.000000 17.859319 34.944042 50.608370 64.421112 76.188501 85.922619 93.780608 100.000000
CELL_DATA 2048
SCALARS u double 1
LOOKUP_TABLE default
0.00000000e+00
-1.44451836e+01
2.07458418e+01
-2.17168106e+01
2.17381883e+01
-2.03627753e+01
1.39201234e+01
4.80493992e+00
0.00000000e+00
-1.44451836e+01
2.07458418e+01
-2.17168106e+01
2.17381883e+01
-2.03627753e+01
1.39201234e+01
5.17074823e+00
0.00000000e+00
1.59009166e+01
-2.61901311e+01
2.82143000e+01
-2.82159981e+01
2.53334265e+01
-1.51697045e+01
4.20203569e+00
0.00000000e+00
-1.59225015e+01
2.67884016e+01
-2.90326995e+01
2.90650159e+01
-2.59236714e+01
1.51912098e+01
5.14872247e+00
0.00000000e+00
1.58202561e+01
-2.69192838e+01
2.92854206e+01
-2.93613014e+01
2.61147422e+01
-1.51129936e+01
4.17761091e+00
0.00000000e+00
-1.56973970e+01
2.69451615e+01
-2.94071924e+01
2.95283199e+01
-2.62146499e+01
1.50212707e+01
5.32420511e+00
0.00000000e+00
1.55815145e+01
-2.69399460e+01
2.94820864e+01
-2.96449607e+01
2.62810311e+01
-1.49374082e+01
4.25276362e+00
0.00000000e+00
-1.54810600e+01
2.69242188e+01
-2.95324626e+01
2.97316715e+01
-2.63291845e+01
1.48670094e+01
5.30405134e+00
0.00000000e+00
1.53970976e+01
-2.69030571e+01
2.95640824e+01
-2.97939815e+01
2.63633841e+01
-1.48100978e+01
4.17731448e+00
0.00000000e+00
-1.53276738e+01
2.68746840e+01
-2.95751679e+01
2.98304046e+01
-2.63826019e+01
1.47645217e+01
5.68951701e+00
0.00000000e+00
1.52692577e+01
-2.68306492e+01
2.95554009e+01
-2.98307089e+01
2.63794085e+01
-1.47268421e+01
4.05588834e+00
0.00000000e+00
-1.52158310e+01
2.67477739e+01
-2.94746362e+01
2.97640211e+01
-2.63318122e+01
1.46913241e+01
5.04026435e+00
0.00000000e+00
1.51519861e+01
-2.65506703e+01
2.92329666e+01
-2.95273436e+01
2.61673040e+01
-1.46436786e+01
4.39337171e+00
0.00000000e+00
-1.50045414e+01
2.58683631e+01
-2.83427162e+01
2.86185076e+01
-2.55289623e+01
1.45173137e+01
5.38079811e+00
0.00000000e+00
1.36131628e+01
-2.02299636e+01
2.13540082e+01
-2.14748903e+01
2.00748573e+01
-1.32507600e+01
4.39076701e+00
0.00000000e+00
1.36131628e+01
-2.02299636e+01
2.13540082e+01
-2.14748903e+01
2.00748573e+01
-1.32507600e+01
4.24664084e+00
0.00000000e+00
-1.44451836e+01
2.07458418e+01
-2.17168106e+01
2.17381883e+01
-2.03627753e+01
1.39201234e+01
4.80493992e+00
0.00000000e+00
-1.44451836e+01
2.07458418e+01
-2.17168106e+01
2.17381883e+01
-2.03627753e+01
1.39201234e+01
5.17074823e+00
0.00000000e+00
1.59009166e+01
-2.61901311e+01
2.82143000e+01
-2.82159981e+01
2.53334265e+01
-1.51697045e+01
4.20203569e+00
0.00000000e+00
-1.59225015e+01
2.67884016e+01
-2.90326995e+01
2.90650159e+01
-2.59236714e+01
1.51912098e+01
5.14872247e+00
0.00000000e+00
1.58202561e+01
-2.69192838e+01
2.92854206e+01
-2.93613014e+01
2.61147422e+01
-1.51129936e+01
4.17761091e+00
0.00000000e+00
-1.56973970e+01
2.69451615e+01
-2.94071924e+01
2.95283199e+01
-2.62146499e+01
1.50212707e+01
5.32420511e+00
0.00000000e+00
1.55815145e+01
-2.69399460e+01
2.94820864e+01
-2.96449607e+01
2.62810311e+01
-1.49374082e+01
4.25276362e+00
0.00000000e+00
-1.54810600e+01
2.69242188e+01
-2.95324626e+01
2.97316715e+01
-2.63291845e+01
1.48670094e+01
5.30405134e+00
0.00000000e+00
1.53970976e+01
-2.69030571e+01
2.95640824e+01
-2.97939815e+01
2.63633841e+01
-1.48100978e+01
4.17731448e+00
0.00000000e+00
-1.53276738e+01
2.68746840e+01
-2.95751679e+01
2.98304046e+01
-2.63826019e+01
1.47645217e+01
5.68951701e+00
0.00000000e+00
1.52692577e+01
-2.68306492e+01
2.95554009e+01
-2.98307089e+01
2.63794085e+01
-1.47268421e+01
4.05588834e+00
0.00000000e+00
-1.52158310e+01
2.67477739e+01
-2.94746362e+01
2.97640211e+01
-2.63318122e+01
1.46913241e+01
5.04026435e+00
0.00000000e+00
1.51519861e+01
-2.65506703e+01
2.92329666e+01
-2.95273436e+01
2.61673040e+01
-1.46436786e+01
4.39337171e+00
0.00000000e+00
-1.50045414e+01
2.58683631e+01
-2.83427162e+01
2.86185076e+01
-2.55289623e+01
1.45173137e+01
5.38079811e+00
0.00000000e+00
1.36131628e+01
-2.02299636e+01
2.13540082e+01
-2.14748903e+01
2.00748573e+01
-1.32507600e+01
4.39076701e+00
0.00000000e+00
1.36131628e+01
-2.02299636e+01
2.13540082e+01
-2.14748903e+01
2.00748573e+01
-1.32507600e+01
4.24664084e+00
0.00000000e+00
6.21500467e+00
-1.04469306e+01
1.13864170e+01
-1.14910123e+01
1.03411370e+01
-6.11717580e+00
4.41045540e+00
0.00000000e+00
6.21500467e+00
-1.04469306e+01
1.13864170e+01
-1.14910123e+01
1.03411370e+01
-6.11717580e+00
5.22762254e+00
0.00000000e+00
-6.96799649e+00
1.69999602e+01
-2.20027620e+01
2.21921690e+01
-1.58841600e+01
6.74172223e+00
5.30620276e+00
0.00000000e+00
6.88932137e+00
-1.80138350e+01
2.48713557e+01
-2.52017055e+01
1.66579316e+01
-6.63615483e+00
4.24378463e+00
0.00000000e+00
-6.71897353e+00
1.80849300e+01
-2.58782150e+01
2.64216652e+01
-1.67241918e+01
6.45119927e+00
5.00007703e+00
0.00000000e+00
6.53364776e+00
-1.79162145e+01
2.63469994e+01
-2.71451918e+01
1.66199873e+01
-6.25891295e+00
4.45722012e+00
0.00000000e+00
-6.36040988e+00
1.76866247e+01
-2.66174185e+01
2.76870584e+01
-1.64752620e+01
6.08458221e+00
4.74619508e+00
0.00000000e+00
6.20950170e+00
-1.74551130e+01
2.67882450e+01
-2.81266971e+01
1.63311854e+01
-5.93649047e+00
4.37059199e+00
0.00000000e+00
-6.08309783e+00
1.72391162e+01
-2.68786965e+01
2.84667574e+01
-1.61989468e+01
5.81513918e+00
4.94305134e+00
0.00000000e+00
5.97969456e+00
-1.70363096e+01
2.68648537e+01
-2.86641931e+01
1.60748437e+01
-5.71783640e+00
4.87824389e+00
0.00000000e+00
-5.89618448e+00
1.68279167e+01
-2.66709143e+01
2.86126807e+01
-1.59412704e+01
5.64071637e+00
5.20710151e+00
0.00000000e+00
5.82811322e+00
-1.65645648e+01
2.61100092e+01
-2.80671230e+01
1.57535162e+01
-5.57896392e+00
4.51565508e+00
0.00000000e+00
-5.76662369e+00
1.60982778e+01
-2.46768970e+01
2.64021866e+01
-1.53793810e+01
5.52409131e+00
5.09075964e+00
0.00000000e+00
5.67514394e+00
-1.48078840e+01
2.07704301e+01
-2.18054312e+01
1.42600736e+01
-5.44335404e+00
4.33432408e+00
0.00000000e+00
-5.01461612e+00
8.72392529e+00
-9.58701559e+00
9.68663461e+00
-8.61344505e+00
4.85351473e+00
4.84659004e+00
0.00000000e+00
-5.01461612e+00
8.72392529e+00
-9.58701559e+00
9.68663461e+00
-8.61344505e+00
4.85351473e+00
4.97414387e+00
0.00000000e+00
-4.40572129e+00
7.60866125e+00
-8.39020850e+00
8.52374880e+00
-7.64900153e+00
4.42490487e+00
5.04706037e+00
0.00000000e+00
-4.40572129e+00
7.60866125e+00
-8.39020850e+00
8.52374880e+00
-7.64900153e+00
4.42490487e+00
5.32232244e+00
0.00000000e+00
4.92258081e+00
-1.30191853e+01
1.82779300e+01
-1.87413940e+01
1.23092725e+01
-4.86158080e+00
4.76521115e+00
0.00000000e+00
-4.81952671e+00
1.38489470e+01
-2.17510710e+01
2.25567046e+01
-1.28955634e+01
4.73191518e+00
4.95000674e+00
0.00000000e+00
4.63338989e+00
-1.37567609e+01
2.30107421e+01
-2.41915280e+01
1.27610931e+01
-4.52415142e+00
4.50946585e+00
0.00000000e+00
-4.42678232e+00
1.34033720e+01
-2.35044331e+01
2.51146967e+01
-1.24306953e+01
4.30060351e+00
5.14494725e+00
0.00000000e+00
4.22663713e+00
-1.29789480e+01
2.36908761e+01
-2.57809900e+01
1.20530466e+01
-4.08872712e+00
4.62979133e+00
0.00000000e+00
-4.04609858e+00
1.25573883e+01
-2.37258133e+01
2.63265475e+01
-1.16863561e+01
3.90105040e+00
5.52229223e+00
0.00000000e+00
3.89036494e+00
-1.21677684e+01
2.36462274e+01
-2.67507237e+01
1.13533180e+01
-3.74165505e+00
4.68888396e+00
0.00000000e+00
-3.76024157e+00
1.18158887e+01
-2.34144590e+01
2.69446808e+01
-1.10575239e+01
3.61025492e+00
4.73115849e+00
0.00000000e+00
3.65427265e+00
-1.14897891e+01
2.29050939e+01
-2.66502668e+01
1.07874224e+01
-3.50454190e+00
5.10310417e+00
0.00000000e+00
-3.56952703e+00
1.11504256e+01
-2.18350679e+01
2.53633541e+01
-1.05081069e+01
3.42105302e+00
5.02312349e+00
0.00000000e+00
3.50010773e+00
-1.06797800e+01
1.95844209e+01
-2.22056364e+01
1.01163244e+01
-3.35390736e+00
4.64678354e+00
0.00000000e+00
-3.42302053e+00
9.60513118e+00
-1.48551919e+01
1.59597636e+01
-9.19361457e+00
3.28236911e+00
4.46770095e+00
0.00000000e+00
3.00745004e+00
-5.32903178e+00
5.89081106e+00
-5.95666335e+00
5.25896450e+00
-2.91022406e+00
4.75322419e+00
0.00000000e+00
3.00745004e+00
-5.32903178e+00
5.89081106e+00
-5.95666335e+00
5.25896450e+00
-2.91022406e+00
5.10444130e+00
0.00000000e+00
3.46224019e+00
-6.05606742e+00
6.71418281e+00
-6.84192781e+00
6.12896768e+00
-3.50003246e+00
4.71616008e+00
0.00000000e+00
3.46224019e+00
-6.05606742e+00
6.71418281e+00
-6.84192781e+00
6.12896768e+00
-3.50003246e+00
4.70981519e+00
0.00000000e+00
-3.86408973e+00
1.05929211e+01
-1.56179655e+01
1.62887060e+01
-1.01416222e+01
3.84852442e+00
4.72528209e+00
0.00000000e+00
3.77379722e+00
-1.12981495e+01
1.92883299e+01
-2.05848826e+01
1.06478855e+01
-3.73952399e+00
4.55601583e+00
0.00000000e+00
-3.60927616e+00
1.11662783e+01
-2.06717280e+01
2.25489865e+01
-1.04680883e+01
3.55829259e+00
5.10086857e+00
0.00000000e+00
3.41911447e+00
-1.07734740e+01
2.11306972e+01
-2.35954729e+01
1.00789006e+01
-3.35337007e+00
4.71727616e+00
0.00000000e+00
-3.22656751e+00
1.02944686e+01
-2.11713125e+01
2.42610141e+01
-9.62417410e+00
3.14897352e+00
4.77231451e+00
0.00000000e+00
3.04540789e+00
-9.80495015e+00
2.09896626e+01
-2.47353803e+01
9.16772583e+00
-2.95906604e+00
4.83852658e+00
0.00000000e+00
-2.88320676e+00
9.34137808e+00
-2.06490307e+01
2.50308640e+01
-8.74077606e+00
2.79084324e+00
4.69864737e+00
0.00000000e+00
2.74344504e+00
-8.91842723e+00
2.01253245e+01
-2.49960553e+01
8.35578991e+00
-2.64720845e+00
4.55744143e+00
0.00000000e+00
-2.62704637e+00
8.53392269e+00
-1.92969139e+01
2.42605134e+01
-8.01051241e+00
2.52854082e+00
4.69706186e+00
0.00000000e+00
2.53314388e+00
-8.16258895e+00
1.78923392e+01
-2.22055192e+01
7.68275952e+00
-2.43359517e+00
4.87282827e+00
0.00000000e+00
-2.45827166e+00
7.71776319e+00
-1.53960073e+01
1.81644020e+01
-7.29755668e+00
2.35889541e+00
4.82630911e+00
0.00000000e+00
2.38666451e+00
-6.84880769e+00
1.10015184e+01
-1.19482812e+01
6.54621082e+00
-2.29023720e+00
4.77114346e+00
0.00000000e+00
-2.08722697e+00
3.71629302e+00
-4.11489777e+00
4.16220247e+00
-3.66810220e+00
2.02064708e+00
5.02304296e+00
0.00000000e+00
-2.08722697e+00
3.71629302e+00
-4.11489777e+00
4.16220247e+00
-3.66810220e+00
2.02064708e+00
4.87630277e+00
0.00000000e+00
-2.73995565e+00
4.83155774e+00
-5.37228395e+00
5.48165029e+00
-4.90093845e+00
2.77196464e+00
4.84445671e+00
0.00000000e+00
-2.73995565e+00
4.83155774e+00
-5.37228395e+00
5.48165029e+00
-4.90093845e+00
2.77196464e+00
4.90337281e+00
0.00000000e+00
3.05907759e+00
-8.57910086e+00
1.31248006e+01
-1.39068584e+01
8.28810862e+00
-3.05450776e+00
4.80056054e+00
0.00000000e+00
-2.99010650e+00
9.18499399e+00
-1.67710445e+01
1.84832346e+01
-8.74193889e+00
2.97373098e+00
5.28699831e+00
0.00000000e+00
2.85881344e+00
-9.06947085e+00
1.82299144e+01
-2.07871958e+01
8.58331808e+00
-2.83167313e+00
4.49067323e+00
0.00000000e+00
-2.70100132e+00
8.71296833e+00
-1.86729378e+01
2.19989575e+01
-8.22221091e+00
2.66367745e+00
4.58769089e+00
0.00000000e+00
2.53453877e+00
-8.26322003e+00
1.86056548e+01
-2.26722207e+01
7.78423230e+00
-2.48828486e+00
4.65825512e+00
0.00000000e+00
-2.37153332e+00
7.78812415e+00
-1.82464795e+01
2.30284714e+01
-7.32873238e+00
2.31796602e+00
4.70882619e+00
0.00000000e+00
2.22011681e+00
-7.32492907e+00
1.76826382e+01
-2.30886978e+01
6.88897982e+00
-2.16085927e+00
4.67668498e+00
0.00000000e+00
-2.08540059e+00
6.89346992e+00
-1.69164182e+01
2.26788080e+01
-6.48290857e+00
2.02188949e+00
4.76593113e+00
0.00000000e+00
1.97026583e+00
-6.49952140e+00
1.58626896e+01
-2.13973406e+01
6.11599395e+00
-1.90371020e+00
4.74003757e+00
0.00000000e+00
-1.87581138e+00
6.12995590e+00
-1.43182439e+01
1.87217611e+01
-5.77732920e+00
1.80726188e+00
4.67371455e+00
0.00000000e+00
1.80077754e+00
-5.72417142e+00
1.19237984e+01
-1.44333154e+01
5.41519272e+00
-1.73135790e+00
4.94519536e+00
0.00000000e+00
-1.73455737e+00
5.02418775e+00
-8.21064150e+00
8.96712445e+00
-4.80317431e+00
1.66657372e+00
5.03008240e+00
0.00000000e+00
1.50984802e+00
-2.69256629e+00
2.98338042e+00
-3.01849738e+00
2.65914823e+00
-1.46300707e+00
4.82415854e+00
0.00000000e+00
1.50984802e+00
-2.69256629e+00
2.98338042e+00
-3.01849738e+00
2.65914823e+00
-1.46300707e+00
4.50448461e+00
0.00000000e+00
2.10798570e+00
-3.73848371e+00
4.16534138e+00
-4.25386268e+00
3.79770404e+00
-2.13314088e+00
4.56673037e+00
0.00000000e+00
2.10798570e+00
-3.73848371e+00
4.16534138e+00
-4.25386268e+00
3.79770404e+00
-2.13314088e+00
4.70939094e+00
0.00000000e+00
-2.35445892e+00
6.71075052e+00
-1.05732263e+01
1.13648567e+01
-6.52985015e+00
2.35464660e+00
5.19292962e+00
0.00000000e+00
2.30372871e+00
-7.20726787e+00
1.39356918e+01
-1.58963968e+01
6.91622317e+00
-2.29666296e+00
4.74055573e+00
0.00000000e+00
-2.20331883e+00
7.11508784e+00
-1.53650503e+01
1.84543641e+01
-6.78948060e+00
2.18970898e+00
4.53656197e+00
0.00000000e+00
2.07877493e+00
-6.81623426e+00
1.57738553e+01
-1.98321881e+01
6.48351554e+00
-2.05870310e+00
4.87686722e+00
0.00000000e+00
-1.94292425e+00
6.42814602e+00
-1.56242333e+01
2.05129987e+01
-6.10050802e+00
1.91681703e+00
5.03790382e+00
0.00000000e+00
1.80530872e+00
-6.00652328e+00
1.51393190e+01
-2.07173194e+01
5.69024119e+00
-1.77386772e+00
5.24785142e+00
0.00000000e+00
-1.67327636e+00
5.58471181e+00
-1.44244609e+01
2.04682743e+01
-5.28318073e+00
1.63730499e+00
4.62418065e+00
0.00000000e+00
1.55232287e+00
-5.18363329e+00
1.35112469e+01
-1.95997249e+01
4.89872840e+00
-1.51261454e+00
4.68246216e+00
0.00000000e+00
-1.44636385e+00
4.81384784e+00
-1.23629554e+01
1.77905940e+01
-4.54705821e+00
1.40367178e+00
5.20835873e+00
0.00000000e+00
1.35786121e+00
-4.47168719e+00
1.08604976e+01
-1.47965544e+01
4.22599085e+00
-1.31293765e+00
4.71595419e+00
0.00000000e+00
-1.28731100e+00
4.11853574e+00
-8.78964421e+00
1.08221031e+01
-3.90325801e+00
1.24105563e+00
4.50458172e+00
0.00000000e+00
1.22826029e+00
-3.57400102e+00
5.89203650e+00
-6.45641939e+00
3.42094867e+00
-1.18247568e+00
4.76003854e+00
0.00000000e+00
-1.06327552e+00
1.89718619e+00
-2.10301201e+00
2.12858741e+00
-1.87562605e+00
1.03191234e+00
5.01913898e+00
0.00000000e+00
-1.06327552e+00
1.89718619e+00
-2.10301201e+00
2.12858741e+00
-1.87562605e+00
1.03191234e+00
4.96161729e+00
0.00000000e+00
-1.52235601e+00
2.71194402e+00
-3.02778755e+00
3.09611926e+00
-2.76288386e+00
1.54489454e+00
4.78938266e+00
0.00000000e+00
-1.52235601e+00
2.71194402e+00
-3.02778755e+00
3.09611926e+00
-2.76288386e+00
1.54489454e+00
4.22744753e+00
0.00000000e+00
1.69940847e+00
-4.90191806e+00
7.90668332e+00
-8.60913923e+00
4.80538932e+00
-1.70600221e+00
4.62121289e+00
0.00000000e+00
-1.66129576e+00
5.26817315e+00
-1.06870442e+01
1.26275064e+01
-5.09826601e+00
1.66351367e+00
4.91782647e+00
0.00000000e+00
1.58535597e+00
-5.18722750e+00
1.19150106e+01
-1.51706050e+01
4.99272855e+00
-1.58365677e+00
4.61182249e+00
0.00000000e+00
-1.48913982e+00
4.94216111e+00
-1.22209313e+01
1.65888428e+01
-4.74129343e+00
1.48345176e+00
4.99767009e+00
0.00000000e+00
1.38149545e+00
-4.62020568e+00
1.19848375e+01
-1.71949583e+01
4.42137496e+00
-1.37189971e+00
4.78889791e+00
0.00000000e+00
-1.26949262e+00
4.26387268e+00
-1.14148260e+01
1.71644167e+01
-4.07163265e+00
1.25622941e+00
4.95886639e+00
0.00000000e+00
1.15915683e+00
-3.90048729e+00
1.06255590e+01
-1.65292380e+01
3.71740522e+00
-1.14255005e+00
4.13407636e+00
0.00000000e+00
-1.05556245e+00
3.54941011e+00
-9.67475269e+00
1.52001585e+01
-3.37688097e+00
1.03597200e+00
4.65325955e+00
0.00000000e+00
9.62850859e-01
-3.22335368e+00
8.57347395e+00
-1.30709753e+01
3.06232800e+00
-9.40671842e-01
4.78755306e+00
0.00000000e+00
-8.84168841e-01
2.92571221e+00
-7.28246303e+00
1.02405251e+01
-2.77793519e+00
8.59870209e-01
4.65011680e+00
0.00000000e+00
8.21233735e-01
-2.63729777e+00
5.70729179e+00
-7.10858148e+00
2.50840409e+00
-7.95456071e-01
4.73601558e+00
0.00000000e+00
-7.71141399e-01
2.24943113e+00
-3.72593774e+00
4.09298553e+00
-2.15888691e+00
7.45151533e-01
4.76206085e+00
0.00000000e+00
6.61510435e-01
-1.18061291e+00
1.30949735e+00
-1.32640551e+00
1.16968573e+00
-6.43978995e-01
4.92309729e+00
0.00000000e+00
6.61510435e-01
-1.18061291e+00
1.30949735e+00
-1.32640551e+00
1.16968573e+00
-6.43978995e-01
5.03780574e+00
0.00000000e+00
9.53241706e-01
-1.70553003e+00
1.91060683e+00
-1.95969274e+00
1.75159148e+00
-9.77641690e-01
4.64553124e+00
0.00000000e+00
9.53241706e-01
-1.70553003e+00
1.91060683e+00
-1.95969274e+00
1.75159148e+00
-9.77641690e-01
4.66066506e+00
0.00000000e+00
-1.06054572e+00
3.08800598e+00
-5.07658973e+00
5.59715616e+00
-3.06281655e+00
1.07684732e+00
4.82113810e+00
0.00000000e+00
1.02991945e+00
-3.30045821e+00
6.95870759e+00
-8.50995965e+00
3.23497285e+00
-1.04378293e+00
4.89281595e+00
0.00000000e+00
-9.72169257e-01
3.21370731e+00
-7.76215323e+00
1.05065518e+01
-3.13435614e+00
9.83742835e-01
4.94737437e+00
0.00000000e+00
8.98352722e-01
-3.01007149e+00
7.85565685e+00
-1.15965203e+01
2.92719385e+00
-9.07507054e-01
4.59628348e+00
0.00000000e+00
-8.14334717e-01
2.74712996e+00
-7.50734374e+00
1.18772522e+01
-2.66573430e+00
8.21018266e-01
4.70795094e+00
0.00000000e+00
7.25161569e-01
-2.45453936e+00
6.88666432e+00
-1.14529496e+01
2.37743967e+00
-7.29404152e-01
4.65094064e+00
0.00000000e+00
-6.35508335e-01
2.15308969e+00
-6.10293501e+00
1.04067923e+01
-2.08182368e+00
6.37384726e-01
5.05222653e+00
0.00000000e+00
5.49682006e-01
-1.85935758e+00
5.23009162e+00
-8.82881160e+00
1.79456521e+00
-5.49297567e-01
5.20817813e+00
0.00000000e+00
-4.71553768e-01
1.58664378e+00
-4.31805569e+00
6.89087968e+00
-1.52843003e+00
4.69062841e-01
4.91199131e+00
0.00000000e+00
4.04442205e-01
-1.34389834e+00
3.39530578e+00
-4.88313629e+00
1.29242607e+00
-4.00088562e-01
4.72863833e+00
0.00000000e+00
-3.50842942e-01
1.13036863e+00
-2.46632337e+00
3.09930985e+00
-1.08713422e+00
3.45015980e-01
4.64410636e+00
0.00000000e+00
3.11090367e-01
-9.09524599e-01
1.51222604e+00
-1.66758326e+00
8.81018187e-01
-3.04491546e-01
4.86667334e+00
0.00000000e+00
-2.58065120e-01
4.61124307e-01
-5.12691005e-01
5.20742134e-01
-4.60434909e-01
2.54051510e-01
4.82671611e+00
0.00000000e+00
-2.58065120e-01
4.61124307e-01
-5.12691005e-01
5.20742134e-01
-4.60434909e-01
2.54051510e-01
4.94829319e+00
0.00000000e+00
-3.68042021e-01
6.65066194e-01
-7.54813470e-01
7.84857036e-01
-7.09443263e-01
3.98284354e-01
5.19254421e+00
0.00000000e+00
-3.68042021e-01
6.65066194e-01
-7.54813470e-01
7.84857036e-01
-7.09443263e-01
3.98284354e-01
5.13497242e+00
0.00000000e+00
4.01588035e-01
-1.18449035e+00
1.99270339e+00
-2.24370569e+00
1.22542707e+00
-4.31306522e-01
4.85109403e+00
0.00000000e+00
-3.74286968e-01
1.21638264e+00
-2.65919930e+00
3.38265236e+00
-1.24825820e+00
4.03051711e-01
4.63780103e+00
0.00000000e+00
3.29696761e-01
-1.10624813e+00
2.79459294e+00
-4.03438450e+00
1.13574716e+00
-3.57261972e-01
4.63632742e+00
0.00000000e+00
-2.73139391e-01
9.30231742e-01
-2.54943884e+00
4.10636257e+00
-9.60667215e-01
2.99326032e-01
4.90203527e+00
0.00000000e+00
2.08195740e-01
-7.15896824e-01
2.05892833e+00
-3.60550987e+00
7.49160693e-01
-2.32898223e-01
4.46899871e+00
0.00000000e+00
-1.38343251e-01
4.80456666e-01
-1.42596820e+00
2.64160685e+00
-5.17632075e-01
1.61497277e-01
4.93147587e+00
0.00000000e+00
6.70802946e-02
-2.38286980e-01
7.32440565e-01
-1.41172541e+00
2.79745262e-01
-8.86360605e-02
4.91153697e+00
0.00000000e+00
2.11955921e-03
2.83884513e-03
-5.16301158e-02
1.72966139e-01
-4.82456461e-02
1.78008511e-02
4.78798266e+00
0.00000000e+00
-6.58836948e-02
2.12634830e-01
-5.41661097e-01
8.08330560e-01
-1.64304942e-01
4.75984615e-02
4.86717345e+00
0.00000000e+00
1.21023252e-01
-3.94139764e-01
9.63148900e-01
-1.34017233e+00
3.44694857e-01
-1.04301273e-01
4.50025306e+00
0.00000000e+00
-1.64536926e-01
5.23338051e-01
-1.11678414e+00
1.37385820e+00
-4.76060619e-01
1.49225431e-01
4.99615803e+00
0.00000000e+00
1.92842749e-01
-5.58593981e-01
9.15244206e-01
-9.95429247e-01
5.21347554e-01
-1.78850160e-01
4.90557494e+00
0.00000000e+00
-1.83551799e-01
3.25641697e-01
-3.58469793e-01
3.60298398e-01
-3.15787882e-01
1.73282167e-01
4.69825457e+00
0.00000000e+00
-1.83551799e-01
3.25641697e-01
-3.58469793e-01
3.60298398e-01
-3.15787882e-01
1.73282167e-01
4.47828963e+00
0.00000000e+00
-2.80194208e-01
4.90147243e-01
-5.28278525e-01
5.18340657e-01
-4.44387724e-01
2.39976592e-01
4.90902695e+00
0.00000000e+00
-2.80194208e-01
4.90147243e-01
-5.28278525e-01
5.18340657e-01
-4.44387724e-01
2.39976592e-01
4.78708841e+00
0.00000000e+00
3.30088545e-01
-9.42995381e-01
1.51149648e+00
-1.61407808e+00
8.34407755e-01
-2.82258525e-01
4.93669401e+00
0.00000000e+00
-3.57636471e-01
1.12648178e+00
-2.35307973e+00
2.86443118e+00
-9.95532472e-01
3.09412416e-01
4.57518393e+00
0.00000000e+00
3.92886461e-01
-1.27825523e+00
3.08591220e+00
-4.29750822e+00
1.13702771e+00
-3.45007599e-01
4.87929240e+00
0.00000000e+00
-4.36181958e-01
1.43989421e+00
-3.75897156e+00
5.84334341e+00
-1.29171512e+00
3.88896456e-01
5.03729448e+00
0.00000000e+00
4.85833350e-01
-1.61593133e+00
4.39529621e+00
-7.34609577e+00
1.46189519e+00
-4.39279014e-01
4.84720347e+00
0.00000000e+00
-5.39592862e-01
1.80172504e+00
-4.98976105e+00
8.61647968e+00
-1.64251040e+00
4.93882645e-01
4.80748155e+00
0.00000000e+00
5.94934970e-01
-1.98914747e+00
5.51336398e+00
-9.47685606e+00
1.82568993e+00
-5.50187345e-01
4.53590640e+00
0.00000000e+00
-6.49161405e-01
2.16780919e+00
-5.91255901e+00
9.77427151e+00
-2.00163957e+00
6.05499684e-01
4.72714854e+00
0.00000000e+00
6.99460029e-01
-2.32449496e+00
6.10134758e+00
-9.38974114e+00
2.15807866e+00
-6.56990259e-01
4.71928201e+00
0.00000000e+00
-7.42900160e-01
2.43973854e+00
-5.94535318e+00
8.26931846e+00
-2.27732484e+00
7.01691633e-01
4.99630708e+00
0.00000000e+00
7.76061068e-01
-2.47358022e+00
5.24378652e+00
-6.45838178e+00
2.32412315e+00
-7.36198253e-01
4.40539494e+00
0.00000000e+00
-7.91694375e-01
2.29355958e+00
-3.75382738e+00
4.10167837e+00
-2.18155739e+00
7.53783149e-01
5.03956111e+00
0.00000000e+00
7.08619919e-01
-1.25915996e+00
1.39154034e+00
-1.40520031e+00
1.23740922e+00
-6.81822995e-01
4.74467087e+00
0.00000000e+00
7.08619919e-01
-1.25915996e+00
1.39154034e+00
-1.40520031e+00
1.23740922e+00
-6.81822995e-01
5.16007412e+00
0.00000000e+00
1.07795425e+00
-1.90973291e+00
2.10304239e+00
-2.11633206e+00
1.85875199e+00
-1.02193324e+00
5.04919406e+00
0.00000000e+00
1.07795425e+00
-1.90973291e+00
2.10304239e+00
-2.11633206e+00
1.85875199e+00
-1.02193324e+00
4.66382025e+00
0.00000000e+00
-1.23193219e+00
3.54446562e+00
-5.74260771e+00
6.27216539e+00
-3.35832572e+00
1.15838366e+00
4.92951815e+00
0.00000000e+00
1.26352876e+00
-3.99480033e+00
8.27466123e+00
-1.01542484e+01
3.75244423e+00
-1.18810464e+00
4.81908053e+00
0.00000000e+00
-1.29247671e+00
4.20947085e+00
-9.89709610e+00
1.35014010e+01
-3.94238079e+00
1.21656470e+00
5.01425959e+00
0.00000000e+00
1.32554690e+00
-4.36968500e+00
1.09505011e+01
-1.60879464e+01
4.08787836e+00
-1.24949811e+00
4.61498804e+00
0.00000000e+00
-1.36284291e+00
4.51672919e+00
-1.16650500e+01
1.78353640e+01
-4.22431280e+00
1.28682985e+00
4.73764542e+00
0.00000000e+00
1.40314846e+00
-4.65957474e+00
1.21571908e+01
-1.88001980e+01
4.35908904e+00
-1.32732283e+00
5.08568613e+00
0.00000000e+00
-1.44474753e+00
4.79644566e+00
-1.24641951e+01
1.90669576e+01
-4.49031662e+00
1.36928133e+00
4.74113953e+00
0.00000000e+00
1.48562328e+00
-4.91983252e+00
1.25621173e+01
-1.86557017e+01
4.61105075e+00
-1.41070969e+00
4.74292800e+00
0.00000000e+00
-1.52349653e+00
5.01609581e+00
-1.23616290e+01
1.74889041e+01
-4.70893454e+00
1.44933478e+00
4.96196840e+00
0.00000000e+00
1.55569306e+00
-5.05891459e+00
1.16779138e+01
-1.54101538e+01
4.76064857e+00
-1.48249265e+00
4.95543361e+00
0.00000000e+00
-1.57825134e+00
4.98171115e+00
-1.01712016e+01
1.22526243e+01
-4.70816875e+00
1.50636806e+00
4.74107017e+00
0.00000000e+00
1.57917071e+00
-4.53846737e+00
7.31718199e+00
-7.96625979e+00
4.33426498e+00
-1.51009008e+00
4.29938100e+00
0.00000000e+00
-1.40007940e+00
2.48335795e+00
-2.74445039e+00
2.77343957e+00
-2.44638884e+00
1.35174185e+00
4.94514156e+00
0.00000000e+00
-1.40007940e+00
2.48335795e+00
-2.74445039e+00
2.77343957e+00
-2.44638884e+00
1.35174185e+00
4.87472438e+00
0.00000000e+00
-2.23382988e+00
3.94904425e+00
-4.35741519e+00
4.40121551e+00
-3.88614601e+00
2.15068482e+00
4.76332713e+00
0.00000000e+00
-2.23382988e+00
3.94904425e+00
-4.35741519e+00
4.40121551e+00
-3.88614601e+00
2.15068482e+00
5.09663292e+00
0.00000000e+00
2.53904182e+00
-7.17843088e+00
1.12762483e+01
-1.22449212e+01
6.89268805e+00
-2.42406249e+00
4.78747078e+00
0.00000000e+00
-2.58050606e+00
7.97371848e+00
-1.52720765e+01
1.79664664e+01
-7.59451434e+00
2.46163708e+00
4.95715654e+00
0.00000000e+00
2.60615609e+00
-8.27752563e+00
1.73799804e+01
-2.16018604e+01
7.85730948e+00
-2.48575255e+00
4.73644571e+00
0.00000000e+00
-2.63152526e+00
8.44949862e+00
-1.85124231e+01
2.37070310e+01
-8.00505226e+00
2.51010477e+00
4.92588956e+00
0.00000000e+00
2.65880471e+00
-8.57570012e+00
1.91371846e+01
-2.48136239e+01
8.11413112e+00
-2.53659521e+00
4.17997258e+00
0.00000000e+00
-2.68777502e+00
8.68083738e+00
-1.94661813e+01
2.52730709e+01
-8.20662308e+00
2.56498131e+00
4.69769215e+00
0.00000000e+00
2.71743367e+00
-8.76998243e+00
1.95796822e+01
-2.52625049e+01
8.28720774e+00
-2.59429744e+00
5.12439849e+00
0.00000000e+00
-2.74635256e+00
8.83834765e+00
-1.94746825e+01
2.48120469e+01
-8.35170980e+00
2.62315618e+00
5.11191011e+00
0.00000000e+00
2.77270028e+00
-8.87108121e+00
1.90652960e+01
-2.38069528e+01
8.38699420e+00
-2.64976129e+00
4.94958687e+00
0.00000000e+00
-2.79392302e+00
8.83266311e+00
-1.81324360e+01
2.19472434e+01
-8.36193906e+00
2.67163342e+00
4.76022419e+00
0.00000000e+00
2.80505940e+00
-8.62176721e+00
1.61822823e+01
-1.86663916e+01
8.18822472e+00
-2.68414945e+00
4.89439046e+00
0.00000000e+00
-2.78678716e+00
7.83990810e+00
-1.21847240e+01
1.31316288e+01
-7.51241747e+00
2.67002902e+00
4.52636665e+00
0.00000000e+00
2.46314605e+00
-4.34677058e+00
4.79699029e+00
-4.84825761e+00
4.28696744e+00
-2.38168747e+00
4.69632427e+00
0.00000000e+00
2.46314605e+00
-4.34677058e+00
4.79699029e+00
-4.84825761e+00
4.28696744e+00
-2.38168747e+00
4.34508909e+00
0.00000000e+00
4.47565925e+00
-7.78143585e+00
8.54885812e+00
-8.64043621e+00
7.69129622e+00
-4.33446500e+00
4.40118044e+00
0.00000000e+00
4.47565925e+00
-7.78143585e+00
8.54885812e+00
-8.64043621e+00
7.69129622e+00
-4.33446500e+00
4.77519566e+00
0.00000000e+00
-5.06638992e+00
1.33631547e+01
-1.90262130e+01
2.01472741e+01
-1.29543964e+01
4.86684887e+00
4.90214496e+00
0.00000000e+00
5.13163839e+00
-1.45541239e+01
2.29868556e+01
-2.50356709e+01
1.40273972e+01
-4.92462433e+00
4.38629339e+00
0.00000000e+00
-5.15896253e+00
1.49539892e+01
-2.45637290e+01
2.70787762e+01
-1.43758947e+01
4.94863416e+00
4.85108848e+00
0.00000000e+00
5.17971260e+00
-1.51404100e+01
2.52745524e+01
-2.79922099e+01
1.45308668e+01
-4.96691339e+00
4.89049426e+00
0.00000000e+00
-5.19941794e+00
1.52479183e+01
-2.56134456e+01
2.84001962e+01
-1.46153160e+01
4.98449177e+00
5.20437388e+00
0.00000000e+00
5.21912696e+00
-1.53172571e+01
2.57584322e+01
-2.85425693e+01
1.46670817e+01
-5.00238857e+00
4.51885026e+00
0.00000000e+00
-5.23856126e+00
1.53602250e+01
-2.57714576e+01
2.85077481e+01
-1.46975988e+01
5.02039326e+00
5.11210616e+00
0.00000000e+00
5.25679040e+00
-1.53746277e+01
2.56537265e+01
-2.83022484e+01
1.47053618e+01
-5.03765068e+00
4.88405763e+00
0.00000000e+00
-5.27224294e+00
1.53442727e+01
-2.53469323e+01
2.78537323e+01
-1.46760774e+01
5.05267132e+00
4.57619807e+00
0.00000000e+00
5.28205021e+00
-1.52239024e+01
2.46808635e+01
-2.69485597e+01
1.45695299e+01
-5.06276692e+00
4.53271816e+00
0.00000000e+00
-5.27884540e+00
1.48735035e+01
-2.31769415e+01
2.50063482e+01
-1.42612597e+01
5.06125010e+00
4.96031693e+00
0.00000000e+00
5.22870825e+00
-1.37026264e+01
1.93266072e+01
-2.03427324e+01
1.32191730e+01
-5.01793752e+00
4.90572366e+00
0.00000000e+00
-4.62480467e+00
8.01618458e+00
-8.79762497e+00
8.88685727e+00
-7.91467455e+00
4.47706488e+00
5.27248371e+00
0.00000000e+00
-4.62480467e+00
8.01618458e+00
-8.79762497e+00
8.88685727e+00
-7.91467455e+00
4.47706488e+00
5.03835538e+00
0.00000000e+00
-1.32385250e+01
1.97638716e+01
-2.08850881e+01
2.10152272e+01
-1.96400481e+01
1.29124801e+01
4.60675609e+00
0.00000000e+00
-1.32385250e+01
1.97638716e+01
-2.08850881e+01
2.10152272e+01
-1.96400481e+01
1.29124801e+01
5.35336498e+00
0.00000000e+00
1.46202804e+01
-2.55327144e+01
2.81000506e+01
-2.84202674e+01
2.52688609e+01
-1.41844168e+01
4.39948472e+00
0.00000000e+00
-1.47547395e+01
2.62436900e+01
-2.90524472e+01
2.94044283e+01
-2.59526680e+01
1.43048691e+01
5.20133191e+00
0.00000000e+00
1.47976498e+01
-2.64489569e+01
2.93258753e+01
-2.96845378e+01
2.61441825e+01
-1.43408635e+01
4.30615883e+00
0.00000000e+00
-1.48207983e+01
2.65331736e+01
-2.94335683e+01
2.97920995e+01
-2.62173890e+01
1.43584022e+01
5.42436448e+00
0.00000000e+00
1.48376071e+01
-2.65737125e+01
2.94807467e+01
-2.98366182e+01
2.62480788e+01
-1.43701348e+01
4.69372912e+00
0.00000000e+00
-1.48515982e+01
2.65932277e+01
-2.94987181e+01
2.98509313e+01
-2.62589164e+01
1.43796179e+01
5.08923679e+00
0.00000000e+00
1.48634970e+01
-2.65987066e+01
2.94974684e+01
-2.98456726e+01
2.62571916e+01
-1.43877495e+01
4.01810343e+00
0.00000000e+00
-1.48727386e+01
2.65898962e+01
-2.94770872e+01
2.98211143e+01
-2.62429539e+01
1.43941225e+01
5.08667503e+00
0.00000000e+00
1.48774734e+01
-2.65593417e+01
2.94278490e+01
-2.97672795e+01
2.62091008e+01
-1.43970431e+01
4.31560650e+00
0.00000000e+00
-1.48730699e+01
2.64840629e+01
-2.93190181e+01
2.96524091e+01
-2.61334606e+01
1.43922098e+01
5.10926176e+00
0.00000000e+00
1.48449887e+01
-2.62867766e+01
2.90469396e+01
-2.93693940e+01
2.59415805e+01
-1.43662975e+01
4.11767230e+00
0.00000000e+00
-1.47199207e+01
2.55847316e+01
-2.81046764e+01
2.83954027e+01
-2.52646949e+01
1.42526070e+01
5.44885282e+00
0.00000000e+00
1.33309219e+01