# vtk DataFile Version 3.0
Meteo Turbulence Simulation Result
ASCII
DATASET RECTILINEAR_GRID
DIMENSIONS 9 9 5
X_COORDINATES 9 double
0.000000 62.500000 125.000000 187.500000 250.000000 312.500000 375.000000 437.500000 500.000000
Y_COORDINATES 9 double
0.000000 62.500000 125.000000 187.500000 250.000000 312.500000 375.000000 437.500000 500.000000
Z_COORDINATES 5 double
0.000000 34.944042 64.421112 85.922619 100.000000
CELL_DATA 256
SCALARS u double 1
LOOKUP_TABLE default
0.00000000e+00
3.51294847e+00
3.39409131e+00
3.36026567e+00
0.00000000e+00
3.35026947e+00
3.59729095e+00
3.22399001e+00
0.00000000e+00
3.14245136e+00
3.42409085e+00
3.52110132e+00
0.00000000e+00
3.39173629e+00
3.66221836e+00
3.42913985e+00
0.00000000e+00
3.23394759e+00
3.47788824e+00
3.38559963e+00
0.00000000e+00
3.21043241e+00
3.46147884e+00
3.63116715e+00
0.00000000e+00
3.54595542e+00
3.61889669e+00
3.54397172e+00
0.00000000e+00
3.31281453e+00
3.48122088e+00
3.70286185e+00
0.00000000e+00
3.51294847e+00
3.39409131e+00
3.36026567e+00
0.00000000e+00
3.35026947e+00
3.59729095e+00
3.22399001e+00
0.00000000e+00
3.14245136e+00
3.42409085e+00
3.52110132e+00
0.00000000e+00
3.39173629e+00
3.66221836e+00
3.42913985e+00
0.00000000e+00
3.23394759e+00
3.47788824e+00
3.38559963e+00
0.00000000e+00
3.21043241e+00
3.46147884e+00
3.63116715e+00
0.00000000e+00
3.54595542e+00
3.61889669e+00
3.54397172e+00
0.00000000e+00
3.31281453e+00
3.48122088e+00
3.70286185e+00
0.00000000e+00
3.20859327e+00
3.55647901e+00
3.64095688e+00
0.00000000e+00
3.22028958e+00
3.54551099e+00
3.36848379e+00
0.00000000e+00
3.23985354e+00
3.43847565e+00
3.79904432e+00
0.00000000e+00
3.10302796e+00
3.19095911e+00
3.52406444e+00
0.00000000e+00
3.35518969e+00
3.40659465e+00
3.67513569e+00
0.00000000e+00
3.19775754e+00
3.40682094e+00
3.28922149e+00
0.00000000e+00
3.09552603e+00
3.59100211e+00
3.64260999e+00
0.00000000e+00
3.49481939e+00
3.53957504e+00
3.52071680e+00
0.00000000e+00
3.45130409e+00
3.38437795e+00
3.39028989e+00
0.00000000e+00
3.28280869e+00
3.35025983e+00
3.68286645e+00
0.00000000e+00
3.04495318e+00
3.46776155e+00
3.54485242e+00
0.00000000e+00
3.55048745e+00
3.35460768e+00
3.61298106e+00
0.00000000e+00
3.19604618e+00
3.29458927e+00
3.44535809e+00
0.00000000e+00
3.23861798e+00
3.49119756e+00
3.53429477e+00
0.00000000e+00
3.30232639e+00
3.24009302e+00
3.50627996e+00
0.00000000e+00
3.32485994e+00
3.49620272e+00
3.56918653e+00
0.00000000e+00
3.43560600e+00
3.40942913e+00
3.56811806e+00
0.00000000e+00
3.34201333e+00
3.56361487e+00
3.54415505e+00
0.00000000e+00
3.30554840e+00
3.36342001e+00
3.37829787e+00
0.00000000e+00
3.05480156e+00
3.44356939e+00
3.57735385e+00
0.00000000e+00
3.33628788e+00
3.62585108e+00
3.36477964e+00
0.00000000e+00
3.16069486e+00
3.44842439e+00
3.47029047e+00
0.00000000e+00
3.02418601e+00
3.67667228e+00
3.55108457e+00
0.00000000e+00
3.43451470e+00
3.22005006e+00
3.37970655e+00
0.00000000e+00
3.41271865e+00
3.22011116e+00
3.43226397e+00
0.00000000e+00
3.08209369e+00
3.49172754e+00
3.35966580e+00
0.00000000e+00
3.20696617e+00
3.57252910e+00
3.56947610e+00
0.00000000e+00
3.09213100e+00
3.35087246e+00
3.59373193e+00
0.00000000e+00
3.03443253e+00
3.31595006e+00
3.67876177e+00
0.00000000e+00
3.02694381e+00
3.30913984e+00
3.59712382e+00
0.00000000e+00
2.99190230e+00
3.16820054e+00
3.30128712e+00
0.00000000e+00
2.90966221e+00
3.13158940e+00
3.59662763e+00
0.00000000e+00
3.23359149e+00
3.31784724e+00
3.62104332e+00
0.00000000e+00
3.39654992e+00
3.43915311e+00
3.53586862e+00
0.00000000e+00
3.09804071e+00
3.41702078e+00
3.48648747e+00
0.00000000e+00
3.13600100e+00
3.22236870e+00
3.58360957e+00
0.00000000e+00
3.14945783e+00
2.93607582e+00
3.56067950e+00
0.00000000e+00
3.32660190e+00
3.37652074e+00
3.55096518e+00
0.00000000e+00
3.11919148e+00
3.26126971e+00
3.46887770e+00
0.00000000e+00
2.92612620e+00
3.42792614e+00
3.47562088e+00
0.00000000e+00
3.23359149e+00
3.31784724e+00
3.62104332e+00
0.00000000e+00
3.39654992e+00
3.43915311e+00
3.53586862e+00
0.00000000e+00
3.09804071e+00
3.41702078e+00
3.48648747e+00
0.00000000e+00
3.13600100e+00
3.22236870e+00
3.58360957e+00
0.00000000e+00
3.14945783e+00
2.93607582e+00
3.56067950e+00
0.00000000e+00
3.32660190e+00
3.37652074e+00
3.55096518e+00
0.00000000e+00
3.11919148e+00
3.26126971e+00
3.46887770e+00
0.00000000e+00
2.92612620e+00
3.42792614e+00
3.47562088e+00
SCALARS v double 1
LOOKUP_TABLE default
0.00000000e+00
3.32512202e+00
3.52449211e+00
3.75232314e+00
0.00000000e+00
3.32512202e+00
3.52449211e+00
3.75232314e+00
0.00000000e+00
3.35712229e+00
3.47455690e+00
3.49251703e+00
0.00000000e+00
3.14790224e+00
3.44129292e+00
3.61784849e+00
0.00000000e+00
3.39726323e+00
3.72036316e+00
3.63480094e+00
0.00000000e+00
2.93210621e+00
3.17015890e+00
3.53514961e+00
0.00000000e+00
3.18310953e+00
3.28946953e+00
3.60450400e+00
0.00000000e+00
3.18310953e+00
3.28946953e+00
3.60450400e+00
0.00000000e+00
3.41820515e+00
3.49204294e+00
3.57559257e+00
0.00000000e+00
3.41820515e+00
3.49204294e+00
3.57559257e+00
0.00000000e+00
3.61163352e+00
3.31297985e+00
3.47752214e+00
0.00000000e+00
3.26284193e+00
3.56282127e+00
3.38506463e+00
0.00000000e+00
3.40542203e+00
3.50851655e+00
3.51957123e+00
0.00000000e+00
3.37593563e+00
3.36305271e+00
3.79199871e+00
0.00000000e+00
3.16499081e+00
3.37540388e+00
3.41312919e+00
0.00000000e+00
3.16499081e+00
3.37540388e+00
3.41312919e+00
0.00000000e+00
3.57053731e+00
3.49033009e+00
3.50478602e+00
0.00000000e+00
3.57053731e+00
3.49033009e+00
3.50478602e+00
0.00000000e+00
3.34514458e+00
3.30974033e+00
3.32587641e+00
0.00000000e+00
3.31956764e+00
3.49005224e+00
3.49726053e+00
0.00000000e+00
3.24461846e+00
3.43230479e+00
3.32509020e+00
0.00000000e+00
3.22245272e+00
3.49157026e+00
3.72524454e+00
0.00000000e+00
3.57039787e+00
3.39740206e+00
3.38378494e+00
0.00000000e+00
3.57039787e+00
3.39740206e+00
3.38378494e+00
0.00000000e+00
3.48672318e+00
3.21353589e+00
3.49603507e+00
0.00000000e+00
3.48672318e+00
3.21353589e+00
3.49603507e+00
0.00000000e+00
3.16656306e+00
3.53671454e+00
3.64778059e+00
0.00000000e+00
2.79358682e+00
3.50568977e+00
3.29187868e+00
0.00000000e+00
3.24105531e+00
3.40361733e+00
3.81826764e+00
0.00000000e+00
3.35432163e+00
3.35027040e+00
3.57005487e+00
0.00000000e+00
3.19559867e+00
3.36110225e+00
3.54989105e+00
0.00000000e+00
3.19559867e+00
3.36110225e+00
3.54989105e+00
0.00000000e+00
3.15690910e+00
3.55635086e+00
3.43712011e+00
0.00000000e+00
3.15690910e+00
3.55635086e+00
3.43712011e+00
0.00000000e+00
3.32127670e+00
3.35928491e+00
3.51796329e+00
0.00000000e+00
3.36113259e+00
3.42168350e+00
3.34660525e+00
0.00000000e+00
2.87686268e+00
3.48158214e+00
3.58010839e+00
0.00000000e+00
3.65577824e+00
3.43332380e+00
3.42772845e+00
0.00000000e+00
3.51593662e+00
3.53598102e+00
3.34861910e+00
0.00000000e+00
3.51593662e+00
3.53598102e+00
3.34861910e+00
0.00000000e+00
3.32562121e+00
3.17835531e+00
3.46917052e+00
0.00000000e+00
3.32562121e+00
3.17835531e+00
3.46917052e+00
0.00000000e+00
3.14987878e+00
3.58232785e+00
3.24362643e+00
0.00000000e+00
3.04436325e+00
3.34759129e+00
3.57939582e+00
0.00000000e+00
3.31821354e+00
3.51387237e+00
3.46195968e+00
0.00000000e+00
3.46024288e+00
3.28305191e+00
3.46062952e+00
0.00000000e+00
3.23848867e+00
3.50769402e+00
3.44162366e+00
0.00000000e+00
3.23848867e+00
3.50769402e+00
3.44162366e+00
0.00000000e+00
3.09351068e+00
3.36483084e+00
3.75278669e+00
0.00000000e+00
3.09351068e+00
3.36483084e+00
3.75278669e+00
0.00000000e+00
3.15389347e+00
3.21388668e+00
3.44257580e+00
0.00000000e+00
2.81911314e+00
3.21886984e+00
3.51745758e+00
0.00000000e+00
3.26559567e+00
3.43306119e+00
3.48354465e+00
0.00000000e+00
3.30898530e+00
3.44659449e+00
3.69168999e+00
0.00000000e+00
3.22808439e+00
3.19647895e+00
3.58374867e+00
0.00000000e+00
3.22808439e+00
3.19647895e+00
3.58374867e+00
0.00000000e+00
3.18989444e+00
3.35081630e+00
3.53344737e+00
0.00000000e+00
3.18989444e+00
3.35081630e+00
3.53344737e+00
0.00000000e+00
2.98063756e+00
3.37148211e+00
3.48120905e+00
0.00000000e+00
3.07797400e+00
3.39398276e+00
3.63318773e+00
0.00000000e+00
3.49524757e+00
3.48274328e+00
3.62943846e+00
0.00000000e+00
3.30467639e+00
3.33329155e+00
3.60003247e+00
0.00000000e+00
3.26725198e+00
3.34718246e+00
3.29058600e+00
0.00000000e+00
3.26725198e+00
3.34718246e+00
3.29058600e+00
SCALARS w double 1
LOOKUP_TABLE default
0.00000000e+00
-4.39223081e+00
-1.14976083e+01
0.00000000e+00
0.00000000e+00
-4.27430192e+00
-1.14843748e+01
0.00000000e+00
0.00000000e+00
-4.30608221e+00
-1.20464409e+01
0.00000000e+00
0.00000000e+00
-4.29639016e+00
-1.16925795e+01
0.00000000e+00
0.00000000e+00
-4.36281262e+00
-1.16597427e+01
0.00000000e+00
0.00000000e+00
-4.38298287e+00
-1.20111338e+01
0.00000000e+00
0.00000000e+00
-4.32618330e+00
-1.17097288e+01
0.00000000e+00
0.00000000e+00
-4.37036629e+00
-1.16079245e+01
0.00000000e+00
0.00000000e+00
-4.39111230e+00
-1.13054351e+01
0.00000000e+00
0.00000000e+00
-4.20055926e+00
-1.15167873e+01
0.00000000e+00
0.00000000e+00
-4.14626253e+00
-1.19140636e+01
0.00000000e+00
0.00000000e+00
-4.44170885e+00
-1.16753063e+01
0.00000000e+00
0.00000000e+00
-4.47617348e+00
-1.18479578e+01
0.00000000e+00
0.00000000e+00
-4.27677174e+00
-1.18038544e+01
0.00000000e+00
0.00000000e+00
-4.26056466e+00
-1.19699775e+01
0.00000000e+00
0.00000000e+00
-4.04529151e+00
-1.15387849e+01
0.00000000e+00
0.00000000e+00
-4.20284632e+00
-1.14620423e+01
0.00000000e+00
0.00000000e+00
-4.26927512e+00
-1.17687083e+01
0.00000000e+00
0.00000000e+00
-4.20733868e+00
-1.16460989e+01
0.00000000e+00
0.00000000e+00
-4.11095143e+00
-1.17558077e+01
0.00000000e+00
0.00000000e+00
-4.31769673e+00
-1.14598376e+01
0.00000000e+00
0.00000000e+00
-4.04397835e+00
-1.19365793e+01
0.00000000e+00
0.00000000e+00
-4.29825033e+00
-1.18814107e+01
0.00000000e+00
0.00000000e+00
-4.00167987e+00
-1.21595369e+01
0.00000000e+00
0.00000000e+00
-4.09103567e+00
-1.16760678e+01
0.00000000e+00
0.00000000e+00
-4.16404670e+00
-1.17880428e+01
0.00000000e+00
0.00000000e+00
-4.15320034e+00
-1.23054239e+01
0.00000000e+00
0.00000000e+00
-4.25578705e+00
-1.17298280e+01
0.00000000e+00
0.00000000e+00
-4.09458796e+00
-1.14214620e+01
0.00000000e+00
0.00000000e+00
-4.35410298e+00
-1.16748178e+01
0.00000000e+00
0.00000000e+00
-4.05689090e+00
-1.18899348e+01
0.00000000e+00
0.00000000e+00
-4.23652297e+00
-1.15423147e+01
0.00000000e+00
0.00000000e+00
-4.27217818e+00
-1.18450918e+01
0.00000000e+00
0.00000000e+00
-4.12572172e+00
-1.17917032e+01
0.00000000e+00
0.00000000e+00
-4.14796663e+00
-1.15855686e+01
0.00000000e+00
0.00000000e+00
-4.19182602e+00
-1.15929702e+01
0.00000000e+00
0.00000000e+00
-4.37426624e+00
-1.20344906e+01
0.00000000e+00
0.00000000e+00
-4.18419120e+00
-1.16384484e+01
0.00000000e+00
0.00000000e+00
-4.50091707e+00
-1.23578264e+01
0.00000000e+00
0.00000000e+00
-4.21885442e+00
-1.24050542e+01
0.00000000e+00
0.00000000e+00
-4.25422131e+00
-1.18522890e+01
0.00000000e+00
0.00000000e+00
-4.24390690e+00
-1.19462819e+01
0.00000000e+00
0.00000000e+00
-4.40993992e+00
-1.19774481e+01
0.00000000e+00
0.00000000e+00
-4.15237418e+00
-1.16112819e+01
0.00000000e+00
0.00000000e+00
-4.11175745e+00
-1.13473114e+01
0.00000000e+00
0.00000000e+00
-4.25858243e+00
-1.14768522e+01
0.00000000e+00
0.00000000e+00
-3.76957681e+00
-1.16347665e+01
0.00000000e+00
0.00000000e+00
-4.38462145e+00
-1.14803031e+01
0.00000000e+00
0.00000000e+00
-4.53899441e+00
-1.19795990e+01
0.00000000e+00
0.00000000e+00
-4.32979201e+00
-1.19127834e+01
0.00000000e+00
0.00000000e+00
-3.86867699e+00
-1.15513354e+01
0.00000000e+00
0.00000000e+00
-4.12550210e+00
-1.16554179e+01
0.00000000e+00
0.00000000e+00
-4.07898977e+00
-1.11080514e+01
0.00000000e+00
0.00000000e+00
-3.87721634e+00
-1.18792628e+01
0.00000000e+00
0.00000000e+00
-4.09801570e+00
-1.11524031e+01
0.00000000e+00
0.00000000e+00
-3.85796593e+00
-1.11260463e+01
0.00000000e+00
0.00000000e+00
-4.19703643e+00
-1.19216083e+01
0.00000000e+00
0.00000000e+00
-3.95716411e+00
-1.19958991e+01
0.00000000e+00
0.00000000e+00
-4.26790028e+00
-1.17307678e+01
0.00000000e+00
0.00000000e+00
-3.77296794e+00
-1.13225892e+01
0.00000000e+00
0.00000000e+00
-3.87971100e+00
-1.11358990e+01
0.00000000e+00
0.00000000e+00
-4.24011428e+00
-1.13980043e+01
0.00000000e+00
0.00000000e+00
-3.95009018e+00
-1.11885772e+01
0.00000000e+00
0.00000000e+00
-4.09825222e+00
-1.12795712e+01
0.00000000e+00
SCALARS p double 1
LOOKUP_TABLE default
0.00000000e+00
0.00000000e+00
0.00000000e+00
0.00000000e+00
0.00000000e+00
0.00000000e+00
0.00000000e+00
0.00000000e+00
0.00000000e+00
0.00000000e+00
0.00000000e+00
0.00000000e+00
0.00000000e+00
0.00000000e+00
0.00000000e+00
0.00000000e+00
0.00000000e+00
0.00000000e+00
0.00000000e+00
0.00000000e+00
0.00000000e+00
0.00000000e+00
0.00000000e+00
0.00000000e+00
0.00000000e+00
0.00000000e+00
0.00000000e+00
0.00000000e+00
0.00000000e+00
0.00000000e+00
0.00000000e+00
0.00000000e+00
0.00000000e+00
0.00000000e+00
0.00000000e+00
0.00000000e+00
0.00000000e+00
0.00000000e+00
0.00000000e+00
0.00000000e+00
0.00000000e+00
0.00000000e+00
0.00000000e+00
0.00000000e+00
0.00000000e+00
0.00000000e+00
0.00000000e+00
0.00000000e+00
0.00000000e+00
0.00000000e+00
0.00000000e+00
0.00000000e+00
0.00000000e+00
0.00000000e+00
0.00000000e+00
0.00000000e+00
0.00000000e+00
0.00000000e+00
0.00000000e+00
0.00000000e+00
0.00000000e+00
0.00000000e+00
0.00000000e+00
0.00000000e+00
0.00000000e+00
0.00000000e+00
0.00000000e+00
0.00000000e+00
0.00000000e+00
0.00000000e+00
0.00000000e+00
0.00000000e+00
0.00000000e+00
0.00000000e+00
0.00000000e+00
0.00000000e+00
0.00000000e+00
0.00000000e+00
0.00000000e+00
0.00000000e+00
0.00000000e+00
0.00000000e+00
0.00000000e+00
0.00000000e+00
0.00000000e+00
0.00000000e+00
0.00000000e+00
0.00000000e+00
0.00000000e+00
0.00000000e+00
0.00000000e+00
0.00000000e+00
0.00000000e+00
0.00000000e+00
0.00000000e+00
0.00000000e+00
0.00000000e+00
0.00000000e+00
0.00000000e+00
0.00000000e+00
0.00000000e+00
0.00000000e+00
0.00000000e+00
0.00000000e+00
0.00000000e+00
0.00000000e+00
0.00000000e+00
0.00000000e+00
0.00000000e+00
0.00000000e+00
0.00000000e+00
0.00000000e+00
0.00000000e+00
0.00000000e+00
0.00000000e+00
0.00000000e+00
0.00000000e+00
0.00000000e+00
0.00000000e+00
0.00000000e+00
0.00000000e+00
0.00000000e+00
0.00000000e+00
0.00000000e+00
0.00000000e+00
0.00000000e+00
0.00000000e+00
0.00000000e+00
0.00000000e+00
0.00000000e+00
0.00000000e+00
0.00000000e+00
0.00000000e+00
0.00000000e+00
0.00000000e+00
0.00000000e+00
0.00000000e+00
0.00000000e+00
0.00000000e+00
0.00000000e+00
0.00000000e+00
0.00000000e+00
0.00000000e+00
0.00000000e+00
0.00000000e+00
0.00000000e+00
0.00000000e+00
0.00000000e+00
0.00000000e+00
0.00000000e+00
0.00000000e+00
0.00000000e+00
0.00000000e+00
0.00000000e+00
0.00000000e+00
0.00000000e+00
0.00000000e+00
0.00000000e+00
0.00000000e+00
0.00000000e+00
0.00000000e+00
0.00000000e+00
0.00000000e+00
0.00000000e+00
0.00000000e+00
0.00000000e+00
0.00000000e+00
0.00000000e+00
0.00000000e+00
0.00000000e+00
0.00000000e+00
0.00000000e+00
0.00000000e+00
0.00000000e+00
0.00000000e+00
0.00000000e+00
0.00000000e+00
0.00000000e+00
0.00000000e+00
0.00000000e+00
0.00000000e+00
0.00000000e+00
0.00000000e+00
0.00000000e+00
0.00000000e+00
0.00000000e+00
0.00000000e+00
0.00000000e+00
0.00000000e+00
0.00000000e+00
0.00000000e+00
0.00000000e+00
0.00000000e+00
0.00000000e+00
0.00000000e+00
0.00000000e+00
0.00000000e+00
0.00000000e+00
0.00000000e+00
0.00000000e+00
0.00000000e+00
0.00000000e+00
0.00000000e+00
0.00000000e+00
0.00000000e+00
0.00000000e+00
0.00000000e+00
0.00000000e+00
0.00000000e+00
0.00000000e+00
0.00000000e+00
0.00000000e+00
0.00000000e+00
0.00000000e+00
0.00000000e+00
0.00000000e+00
0.00000000e+00
0.00000000e+00
0.00000000e+00
0.00000000e+00
0.00000000e+00
0.00000000e+00
0.00000000e+00
0.00000000e+00
0.00000000e+00
0.00000000e+00
0.00000000e+00
0.00000000e+00
0.00000000e+00
0.00000000e+00
0.00000000e+00
0.00000000e+00
0.00000000e+00
0.00000000e+00
0.00000000e+00
0.00000000e+00
0.00000000e+00
0.00000000e+00
0.00000000e+00
0.00000000e+00
0.00000000e+00
0.00000000e+00
0.00000000e+00
0.00000000e+00
0.00000000e+00
0.00000000e+00
0.00000000e+00
0.00000000e+00
0.00000000e+00
0.00000000e+00
0.00000000e+00
0.00000000e+00
0.00000000e+00
0.00000000e+00
0.00000000e+00
0.00000000e+00
SCALARS tke double 1
LOOKUP_TABLE default
8.21311642e+00
9.67777596e+00
6.61028592e+01
4.08065226e-02
8.21311642e+00
9.13998250e+00
6.59649585e+01
7.01587913e-02
8.21311642e+00
9.28298967e+00
7.25595512e+01
2.04766097e-04
8.21311642e+00
9.24435585e+00
6.83862286e+01
9.15801513e-03
8.21311642e+00
9.52609614e+00
6.80194778e+01
1.55325243e-02
8.21311642e+00
9.66295165e+00
7.21670203e+01
8.02649492e-03
8.21311642e+00
9.40035514e+00
6.85868006e+01
5.36774263e-03
8.21311642e+00
9.55461956e+00
6.73827995e+01
2.37831105e-02
8.21311642e+00
9.68260499e+00
6.39091219e+01
1.31586009e-02
8.21311642e+00
8.83724422e+00
6.63350502e+01
4.25108696e-02
8.21311642e+00
8.66288576e+00
7.09788428e+01
5.42108785e-04
8.21311642e+00
9.87217531e+00
6.81936558e+01
1.05687353e-02
8.21311642e+00
1.00281896e+01
7.01918050e+01
7.50454989e-03
8.21311642e+00
9.15292099e+00
6.96680998e+01
4.81096953e-02
8.21311642e+00
9.12031417e+00
7.16600676e+01
5.11898908e-03
8.21311642e+00
8.18844489e+00
6.65745827e+01
2.35343569e-02
8.21311642e+00
8.87972837e+00
6.56997924e+01
8.90685910e-03
8.21311642e+00
9.16050988e+00
6.92604611e+01
9.66881389e-03
8.21311642e+00
8.85427045e+00
6.78226433e+01
5.89907648e-02
8.21311642e+00
8.46478746e+00
6.91291770e+01
1.89507982e-04
8.21311642e+00
9.32539082e+00
6.56641466e+01
3.06877789e-02
8.21311642e+00
8.18027149e+00
7.12432971e+01
4.75291057e-02
8.21311642e+00
9.29820292e+00
7.05979850e+01
1.67798732e-02
8.21311642e+00
8.07868956e+00
7.39340294e+01
7.74190418e-03
8.21311642e+00
8.40940400e+00
6.81887115e+01
6.93698570e-03
8.21311642e+00
8.69390333e+00
6.95044101e+01
1.54396690e-02
8.21311642e+00
8.65423716e+00
7.57187321e+01
1.05339443e-02
8.21311642e+00
9.20810692e+00
6.88001561e+01
2.88112519e-02
8.21311642e+00
8.38568041e+00
6.52337785e+01
5.02149022e-02
8.21311642e+00
9.48332089e+00
6.81556775e+01
2.31403751e-03
8.21311642e+00
8.23235544e+00
7.07046563e+01
8.98554487e-04
8.21311642e+00
8.97828658e+00
6.66170845e+01
2.79936933e-03
8.21311642e+00
9.14602638e+00
7.01617350e+01
4.31410324e-03
8.21311642e+00
8.51966382e+00
6.95401022e+01
3.14902674e-03
8.21311642e+00
8.60502827e+00
6.71168812e+01
8.40332739e-03
8.21311642e+00
8.81264886e+00
6.71986426e+01
1.53848676e-02
8.21311642e+00
9.64561095e+00
7.24360017e+01
1.28217161e-02
8.21311642e+00
8.83494878e+00
6.77270189e+01
3.87598749e-03
8.21311642e+00
1.01895912e+01
7.63954097e+01
1.35733123e-02
8.21311642e+00
8.94437589e+00
7.69699391e+01
2.07919618e-02
8.21311642e+00
9.06153185e+00
7.02902282e+01
3.56670946e-03
8.21311642e+00
9.02418802e+00
7.13896457e+01
1.16651723e-02
8.21311642e+00
9.73244820e+00
7.17525916e+01
3.67385353e-02
8.21311642e+00
8.66118426e+00
6.74168274e+01
6.29982540e-03
8.21311642e+00
8.48163237e+00
6.43906544e+01
1.57001490e-02
8.21311642e+00
9.11524767e+00
6.58761081e+01
5.11391879e-03
8.21311642e+00
7.14310464e+00
6.77204595e+01
2.34362854e-02
8.21311642e+00
9.67670951e+00
6.59453515e+01
6.14132400e-03
8.21311642e+00
1.03168453e+01
7.17631126e+01
3.65228054e-02
8.21311642e+00
9.39699091e+00
7.09591604e+01
3.04805802e-02
8.21311642e+00
7.50400487e+00
6.67392065e+01
2.32978053e-03
8.21311642e+00
8.61877345e+00
6.79665597e+01
2.94446694e-03
8.21311642e+00
8.32598947e+00
6.18144312e+01
1.70046897e-03
8.21311642e+00
7.51905945e+00
7.05598775e+01
1.79037690e-02
8.21311642e+00
8.40854980e+00
6.22279481e+01
3.65214006e-03
8.21311642e+00
7.50081048e+00
6.19207907e+01
3.41432506e-03
8.21311642e+00
8.81108959e+00
7.10710440e+01
6.78033665e-03
8.21311642e+00
7.84093740e+00
7.19537091e+01
7.38111362e-04
8.21311642e+00
9.16276800e+00
6.88069817e+01
5.67163883e-04
8.21311642e+00
7.14409372e+00
6.41217541e+01
1.07916516e-02
8.21311642e+00
7.55903377e+00
6.21257384e+01
8.84558679e-03
8.21311642e+00
8.99176917e+00
6.49627698e+01
5.22345938e-03
8.21311642e+00
7.81253195e+00
6.26087992e+01
2.42759697e-02
8.21311642e+00
8.45593783e+00
6.36174698e+01
2.40381547e-02
SCALARS wind_speed double 1
LOOKUP_TABLE default
0.00000000e+00
6.53367698e+00
1.24954751e+01
5.03699457e+00
0.00000000e+00
6.36791951e+00
1.25400723e+01
4.94712447e+00
0.00000000e+00
6.29981068e+00
1.29966797e+01
4.95941828e+00
0.00000000e+00
6.31443838e+00
1.27267732e+01
4.98475955e+00
0.00000000e+00
6.40577461e+00
1.27234590e+01
4.96729934e+00
0.00000000e+00
6.17370731e+00
1.28957000e+01
5.06780600e+00
0.00000000e+00
6.43598073e+00
1.26899477e+01
5.05491688e+00
0.00000000e+00
6.34090119e+00
1.25572059e+01
5.16755599e+00
0.00000000e+00
6.58079027e+00
1.23096337e+01
4.90675530e+00
0.00000000e+00
6.36813395e+00
1.25607028e+01
4.81445467e+00
0.00000000e+00
6.33327642e+00
1.28314125e+01
4.94887005e+00
0.00000000e+00
6.47138239e+00
1.27443445e+01
4.81847098e+00
0.00000000e+00
6.48779202e+00
1.28366467e+01
4.88361203e+00
0.00000000e+00
6.32412794e+00
1.27523699e+01
5.25020277e+00
0.00000000e+00
6.38305396e+00
1.29526108e+01
4.92028316e+00
0.00000000e+00
6.11197924e+00
1.25162217e+01
5.03593455e+00
0.00000000e+00
6.38026055e+00
1.24983744e+01
5.05372061e+00
0.00000000e+00
6.43006312e+00
1.27771494e+01
4.86109124e+00
0.00000000e+00
6.27601322e+00
1.25860683e+01
5.04917732e+00
0.00000000e+00
6.12766134e+00
1.26712943e+01
4.96486267e+00
0.00000000e+00
6.35825070e+00
1.24383874e+01
4.95609192e+00
0.00000000e+00
6.07977102e+00
1.28949376e+01
4.96954977e+00
0.00000000e+00
6.38787744e+00
1.28687823e+01
4.97178118e+00
0.00000000e+00
6.40116749e+00
1.31120277e+01
4.88318004e+00
0.00000000e+00
6.38790351e+00
1.25742350e+01
4.86994114e+00
0.00000000e+00
6.34612924e+00
1.26692149e+01
5.07796873e+00
0.00000000e+00
6.04548878e+00
1.32648851e+01
5.08648031e+00
0.00000000e+00
6.20659422e+00
1.26937826e+01
4.88774973e+00
0.00000000e+00
6.12248326e+00
1.23648179e+01
5.14292331e+00
0.00000000e+00
6.37952450e+00
1.26378061e+01
5.02359745e+00
0.00000000e+00
6.12989186e+00
1.27736353e+01
4.98956167e+00
0.00000000e+00
6.26216188e+00
1.25198031e+01
5.03396652e+00
0.00000000e+00
6.32621293e+00
1.28287972e+01
4.95431743e+00
0.00000000e+00
6.17711161e+00
1.28215150e+01
4.93708716e+00
0.00000000e+00
6.25804732e+00
1.25228906e+01
4.87739297e+00
0.00000000e+00
6.18064966e+00
1.25683350e+01
4.89869648e+00
0.00000000e+00
6.20816888e+00
1.30421307e+01
4.91313730e+00
0.00000000e+00
6.39235188e+00
1.26147859e+01
4.87772880e+00
0.00000000e+00
6.46264387e+00
1.33692541e+01
4.88092732e+00
0.00000000e+00
6.47737865e+00
1.32950086e+01
4.75769548e+00
0.00000000e+00
6.38786380e+00
1.26865209e+01
4.88012091e+00
0.00000000e+00
6.21045922e+00
1.28455344e+01
4.82933726e+00
0.00000000e+00
6.29713732e+00
1.30021267e+01
4.82309776e+00
0.00000000e+00
6.00596646e+00
1.25401986e+01
5.07217740e+00
0.00000000e+00
6.09301823e+00
1.23330572e+01
5.05157926e+00
0.00000000e+00
6.26667327e+00
1.23873715e+01
4.99151846e+00
0.00000000e+00
5.80077560e+00
1.25582325e+01
4.76899047e+00
0.00000000e+00
6.17890348e+00
1.24059715e+01
4.97800198e+00
0.00000000e+00
6.37404052e+00
1.28779265e+01
5.21491732e+00
0.00000000e+00
6.31295957e+00
1.28477340e+01
5.15613953e+00
0.00000000e+00
5.87465419e+00
1.24674956e+01
4.89968602e+00
0.00000000e+00
5.89929392e+00
1.25137344e+01
5.02143061e+00
0.00000000e+00
6.10093085e+00
1.19914659e+01
4.98131728e+00
0.00000000e+00
6.08674547e+00
1.28217311e+01
5.12229721e+00
0.00000000e+00
6.07812611e+00
1.20511183e+01
4.98762138e+00
0.00000000e+00
5.81950552e+00
1.20729889e+01
4.99231359e+00
0.00000000e+00
6.18438803e+00
1.28203286e+01
5.05936805e+00
0.00000000e+00
6.11319276e+00
1.29211973e+01
4.99876156e+00
0.00000000e+00
6.05780730e+00
1.26749294e+01
4.92690687e+00
0.00000000e+00
5.79169347e+00
1.22516858e+01
5.10316673e+00
0.00000000e+00
6.09819626e+00
1.20315539e+01
5.08441364e+00
0.00000000e+00
6.32184588e+00
1.23461017e+01
5.05663796e+00
0.00000000e+00
6.00062525e+00
1.21253359e+01
4.78132499e+00
0.00000000e+00
6.00273449e+00
1.22549188e+01
4.78621946e+00
